VaspCalc                                
   1.00000000000000     
     3.186500    0.000000    0.000000
    -1.593250    2.759590    0.000000
     0.000000    0.000000   20.000000
   S    Mo   W 
     4     1     1
Direct
  0.659025  0.345879  0.692836
  0.659050  0.345864  0.536512
  0.997881  0.001092  0.384376
  0.997833  0.000995  0.228447
  0.664368  0.334294  0.306444
  0.992438  0.012485  0.614603
 
   20   20  126
 0.12703E-02 0.12820E-02 0.12150E-02 0.94628E-03 0.61481E-03 0.41606E-03 0.36506E-03 0.36514E-03 0.36548E-03 0.36729E-03
 0.36728E-03 0.36255E-03 0.36237E-03 0.36176E-03 0.36780E-03 0.47202E-03 0.76974E-03 0.11536E-02 0.13645E-02 0.13356E-02
 0.13435E-02 0.13159E-02 0.12709E-02 0.10616E-02 0.72572E-03 0.46032E-03 0.35573E-03 0.34776E-03 0.37134E-03 0.41202E-03
 0.44529E-03 0.43680E-03 0.39576E-03 0.35960E-03 0.34294E-03 0.37764E-03 0.55879E-03 0.91101E-03 0.12519E-02 0.13792E-02
 0.13809E-02 0.13771E-02 0.13003E-02 0.11019E-02 0.78946E-03 0.50579E-03 0.36341E-03 0.34773E-03 0.41219E-03 0.53427E-03
 0.66158E-03 0.70735E-03 0.63463E-03 0.50033E-03 0.38922E-03 0.34458E-03 0.40396E-03 0.62342E-03 0.96633E-03 0.12596E-02
 0.11748E-02 0.12867E-02 0.12425E-02 0.10569E-02 0.77917E-03 0.51977E-03 0.37330E-03 0.35814E-03 0.46807E-03 0.69125E-03
 0.95306E-03 0.11232E-02 0.11056E-02 0.90830E-03 0.64142E-03 0.43549E-03 0.35632E-03 0.41911E-03 0.62679E-03 0.92208E-03
 0.78640E-03 0.96727E-03 0.10132E-02 0.90085E-03 0.69214E-03 0.49059E-03 0.36995E-03 0.35938E-03 0.49580E-03 0.79885E-03
 0.11798E-02 0.14776E-02 0.15812E-02 0.14549E-02 0.11301E-02 0.73988E-03 0.45762E-03 0.35645E-03 0.40619E-03 0.56654E-03
 0.47896E-03 0.60798E-03 0.69519E-03 0.67471E-03 0.56319E-03 0.43923E-03 0.35932E-03 0.34853E-03 0.47277E-03 0.80198E-03
 0.12569E-02 0.16351E-02 0.18244E-02 0.18307E-02 0.16284E-02 0.12095E-02 0.73842E-03 0.43452E-03 0.34464E-03 0.37992E-03
 0.36830E-03 0.41445E-03 0.46890E-03 0.49029E-03 0.45651E-03 0.40131E-03 0.35995E-03 0.34400E-03 0.41869E-03 0.70271E-03
 0.11779E-02 0.16182E-02 0.18504E-02 0.19248E-02 0.18862E-02 0.16229E-02 0.11245E-02 0.63827E-03 0.38799E-03 0.34246E-03
 0.36095E-03 0.37867E-03 0.39445E-03 0.41076E-03 0.40967E-03 0.39285E-03 0.37605E-03 0.35833E-03 0.37555E-03 0.55388E-03
 0.96787E-03 0.14564E-02 0.17703E-02 0.18829E-02 0.19146E-02 0.18158E-02 0.14422E-02 0.90127E-03 0.49793E-03 0.35882E-03
 0.36218E-03 0.38329E-03 0.39225E-03 0.39806E-03 0.40230E-03 0.39840E-03 0.39149E-03 0.37921E-03 0.36593E-03 0.43145E-03
 0.69763E-03 0.11416E-02 0.15485E-02 0.17614E-02 0.18313E-02 0.18008E-02 0.15613E-02 0.10942E-02 0.63088E-03 0.39534E-03
 0.36324E-03 0.37682E-03 0.38978E-03 0.39369E-03 0.39780E-03 0.39770E-03 0.39329E-03 0.38759E-03 0.37533E-03 0.37800E-03
 0.48234E-03 0.76093E-03 0.11396E-02 0.14465E-02 0.15985E-02 0.16102E-02 0.14557E-02 0.11101E-02 0.70330E-03 0.43724E-03
 0.36910E-03 0.37085E-03 0.38125E-03 0.38392E-03 0.38727E-03 0.38950E-03 0.38688E-03 0.38347E-03 0.38034E-03 0.37361E-03
 0.38668E-03 0.48376E-03 0.69871E-03 0.96424E-03 0.11666E-02 0.12401E-02 0.11636E-02 0.94308E-03 0.65920E-03 0.44712E-03
 0.36969E-03 0.37201E-03 0.37820E-03 0.37802E-03 0.37931E-03 0.38206E-03 0.38180E-03 0.37914E-03 0.37823E-03 0.37824E-03
 0.37420E-03 0.37993E-03 0.43456E-03 0.55596E-03 0.70104E-03 0.79622E-03 0.79186E-03 0.68689E-03 0.53423E-03 0.41465E-03
 0.36702E-03 0.37717E-03 0.38106E-03 0.37816E-03 0.37714E-03 0.37830E-03 0.37875E-03 0.37814E-03 0.37718E-03 0.37838E-03
 0.38066E-03 0.37617E-03 0.36786E-03 0.37830E-03 0.42088E-03 0.47329E-03 0.49509E-03 0.46771E-03 0.41319E-03 0.37322E-03
 0.36545E-03 0.38367E-03 0.38807E-03 0.38299E-03 0.37933E-03 0.37814E-03 0.37703E-03 0.37722E-03 0.37822E-03 0.37933E-03
 0.38358E-03 0.38763E-03 0.37969E-03 0.35959E-03 0.34550E-03 0.34944E-03 0.35962E-03 0.35838E-03 0.34841E-03 0.34851E-03
 0.36530E-03 0.38420E-03 0.39459E-03 0.39220E-03 0.38617E-03 0.38185E-03 0.37839E-03 0.37700E-03 0.37881E-03 0.38199E-03
 0.38701E-03 0.39339E-03 0.39208E-03 0.37709E-03 0.36014E-03 0.35739E-03 0.36630E-03 0.36978E-03 0.36153E-03 0.35544E-03
 0.41485E-03 0.39745E-03 0.39898E-03 0.40150E-03 0.39671E-03 0.38863E-03 0.38180E-03 0.37807E-03 0.37831E-03 0.38221E-03
 0.38963E-03 0.39800E-03 0.39959E-03 0.39428E-03 0.39984E-03 0.43193E-03 0.47813E-03 0.50615E-03 0.49531E-03 0.45494E-03
 0.60678E-03 0.50224E-03 0.43621E-03 0.41262E-03 0.40561E-03 0.39659E-03 0.38606E-03 0.37921E-03 0.37709E-03 0.37940E-03
 0.38731E-03 0.39802E-03 0.40352E-03 0.41076E-03 0.45237E-03 0.54873E-03 0.66798E-03 0.75136E-03 0.76485E-03 0.70885E-03
 0.92986E-03 0.75710E-03 0.57460E-03 0.45609E-03 0.41219E-03 0.40115E-03 0.39208E-03 0.38290E-03 0.37813E-03 0.37812E-03
 0.38397E-03 0.39374E-03 0.39894E-03 0.41133E-03 0.48435E-03 0.65523E-03 0.86822E-03 0.10191E-02 0.10670E-02 0.10346E-02
 0.11979E-02 0.10664E-02 0.82324E-03 0.57552E-03 0.43567E-03 0.39828E-03 0.39455E-03 0.38815E-03 0.38096E-03 0.37821E-03
 0.38139E-03 0.38989E-03 0.39288E-03 0.39502E-03 0.46377E-03 0.67633E-03 0.98006E-03 0.12044E-02 0.12664E-02 0.12446E-02
 0.12728E-02 0.12486E-02 0.10732E-02 0.76351E-03 0.50399E-03 0.39685E-03 0.38409E-03 0.38375E-03 0.37653E-03 0.37112E-03
 0.37044E-03 0.37686E-03 0.38381E-03 0.37949E-03 0.41180E-03 0.59454E-03 0.94084E-03 0.12557E-02 0.13515E-02 0.12987E-02
 0.58932E-04 0.66724E-04 0.15029E-03 0.35894E-03 0.57209E-03 0.66641E-03 0.65856E-03 0.62550E-03 0.59766E-03 0.57486E-03
 0.56762E-03 0.58105E-03 0.60314E-03 0.63121E-03 0.65891E-03 0.62157E-03 0.44547E-03 0.19217E-03 0.34337E-04 0.28555E-04
 0.23744E-04 0.42795E-04 0.94565E-04 0.26106E-03 0.49050E-03 0.64289E-03 0.67350E-03 0.64224E-03 0.59677E-03 0.54694E-03
 0.51334E-03 0.52181E-03 0.56345E-03 0.60969E-03 0.64935E-03 0.65760E-03 0.56266E-03 0.34051E-03 0.11117E-03 0.13542E-04
 0.22577E-04 0.24603E-04 0.83089E-04 0.22806E-03 0.44029E-03 0.61314E-03 0.67535E-03 0.65141E-03 0.58462E-03 0.49312E-03
 0.40842E-03 0.38217E-03 0.43323E-03 0.52412E-03 0.60651E-03 0.65708E-03 0.64386E-03 0.51749E-03 0.29847E-03 0.10523E-03
 0.17481E-03 0.10972E-03 0.14359E-03 0.26679E-03 0.44512E-03 0.60096E-03 0.67064E-03 0.65179E-03 0.56631E-03 0.43160E-03
 0.28706E-03 0.19877E-03 0.21524E-03 0.32745E-03 0.47519E-03 0.59562E-03 0.65631E-03 0.63499E-03 0.51437E-03 0.33094E-03
 0.43038E-03 0.33150E-03 0.31293E-03 0.38331E-03 0.50507E-03 0.61591E-03 0.66896E-03 0.65030E-03 0.55558E-03 0.39076E-03
 0.20252E-03 0.62137E-04 0.18304E-04 0.86396E-04 0.24845E-03 0.44165E-03 0.58946E-03 0.65588E-03 0.64146E-03 0.55526E-03
 0.61449E-03 0.55641E-03 0.52034E-03 0.53588E-03 0.59062E-03 0.64474E-03 0.66901E-03 0.64938E-03 0.56068E-03 0.38657E-03
 0.17561E-03 0.14059E-04 -.62187E-04 -.61783E-04 0.29990E-04 0.22100E-03 0.44153E-03 0.59525E-03 0.65632E-03 0.65490E-03
 0.65789E-03 0.65465E-03 0.64474E-03 0.64231E-03 0.65269E-03 0.66267E-03 0.66165E-03 0.64359E-03 0.57629E-03 0.41785E-03
 0.19832E-03 0.22387E-04 -.55903E-04 -.80939E-04 -.72721E-04 0.31668E-04 0.24895E-03 0.47459E-03 0.60605E-03 0.64919E-03
 0.63176E-03 0.64526E-03 0.65880E-03 0.66552E-03 0.66522E-03 0.65752E-03 0.64454E-03 0.62995E-03 0.59013E-03 0.47131E-03
 0.26582E-03 0.66051E-04 -.33390E-04 -.57208E-04 -.76023E-04 -.55965E-04 0.89013E-04 0.32684E-03 0.52289E-03 0.60949E-03
 0.60324E-03 0.61397E-03 0.62798E-03 0.64132E-03 0.64553E-03 0.63922E-03 0.62641E-03 0.61451E-03 0.59515E-03 0.52563E-03
 0.36898E-03 0.16779E-03 0.22773E-04 -.29890E-04 -.47480E-04 -.53007E-04 0.23018E-04 0.21465E-03 0.43070E-03 0.56212E-03
 0.58034E-03 0.59554E-03 0.60434E-03 0.61517E-03 0.62185E-03 0.62120E-03 0.61396E-03 0.60442E-03 0.59379E-03 0.56257E-03
 0.47446E-03 0.32383E-03 0.16680E-03 0.67533E-04 0.28241E-04 0.21391E-04 0.65874E-04 0.19702E-03 0.37781E-03 0.51878E-03
 0.56591E-03 0.58451E-03 0.59189E-03 0.59881E-03 0.60355E-03 0.60499E-03 0.60311E-03 0.59805E-03 0.59121E-03 0.57939E-03
 0.54634E-03 0.47280E-03 0.36554E-03 0.26268E-03 0.19764E-03 0.17661E-03 0.20198E-03 0.28298E-03 0.40240E-03 0.50874E-03
 0.57288E-03 0.58272E-03 0.58622E-03 0.58897E-03 0.58976E-03 0.58933E-03 0.58941E-03 0.58952E-03 0.58829E-03 0.58543E-03
 0.57908E-03 0.56109E-03 0.52231E-03 0.46666E-03 0.41330E-03 0.38270E-03 0.38665E-03 0.42624E-03 0.48721E-03 0.54245E-03
 0.59684E-03 0.59356E-03 0.59077E-03 0.58819E-03 0.58360E-03 0.57887E-03 0.57722E-03 0.57937E-03 0.58391E-03 0.58834E-03
 0.59130E-03 0.59361E-03 0.59405E-03 0.58772E-03 0.57293E-03 0.55697E-03 0.55171E-03 0.56226E-03 0.58090E-03 0.59434E-03
 0.62594E-03 0.61173E-03 0.60412E-03 0.59818E-03 0.58867E-03 0.57833E-03 0.57245E-03 0.57287E-03 0.57946E-03 0.58973E-03
 0.59850E-03 0.60502E-03 0.61483E-03 0.62970E-03 0.64302E-03 0.64883E-03 0.64969E-03 0.65087E-03 0.65039E-03 0.64182E-03
 0.65925E-03 0.63859E-03 0.62373E-03 0.61444E-03 0.60283E-03 0.58798E-03 0.57640E-03 0.57252E-03 0.57738E-03 0.58973E-03
 0.60371E-03 0.61460E-03 0.62662E-03 0.64462E-03 0.66293E-03 0.67243E-03 0.67382E-03 0.67514E-03 0.67819E-03 0.67480E-03
 0.66905E-03 0.66823E-03 0.65249E-03 0.63553E-03 0.62064E-03 0.60413E-03 0.58796E-03 0.57837E-03 0.57901E-03 0.58964E-03
 0.60558E-03 0.62169E-03 0.63900E-03 0.65757E-03 0.66605E-03 0.65375E-03 0.62946E-03 0.61529E-03 0.62451E-03 0.64957E-03
 0.58110E-03 0.64620E-03 0.67164E-03 0.66165E-03 0.64033E-03 0.62060E-03 0.60276E-03 0.58869E-03 0.58372E-03 0.59002E-03
 0.60408E-03 0.62228E-03 0.64520E-03 0.66572E-03 0.65885E-03 0.60634E-03 0.52884E-03 0.47132E-03 0.46345E-03 0.50713E-03
 0.37416E-03 0.50688E-03 0.62303E-03 0.67140E-03 0.66170E-03 0.63547E-03 0.61424E-03 0.59810E-03 0.58826E-03 0.58912E-03
 0.59920E-03 0.61557E-03 0.64102E-03 0.66615E-03 0.64981E-03 0.55566E-03 0.41347E-03 0.29973E-03 0.25762E-03 0.28442E-03
 0.16416E-03 0.28793E-03 0.47222E-03 0.62154E-03 0.67121E-03 0.65243E-03 0.62327E-03 0.60368E-03 0.59064E-03 0.58616E-03
 0.59191E-03 0.60449E-03 0.62766E-03 0.65894E-03 0.65085E-03 0.53885E-03 0.34244E-03 0.17491E-03 0.10916E-03 0.11462E-03
 0.73112E-04 0.12296E-03 0.28178E-03 0.50005E-03 0.64309E-03 0.66765E-03 0.63797E-03 0.61097E-03 0.59346E-03 0.58299E-03
 0.58457E-03 0.59540E-03 0.61353E-03 0.64483E-03 0.65796E-03 0.56959E-03 0.35490E-03 0.13464E-03 0.42815E-04 0.54095E-04
 0.14133E-02 0.13727E-02 0.12723E-02 0.11677E-02 0.11006E-02 0.10629E-02 0.10271E-02 0.98871E-03 0.96053E-03 0.94657E-03
 0.94208E-03 0.94602E-03 0.96184E-03 0.99153E-03 0.10335E-02 0.10848E-02 0.11456E-02 0.12189E-02 0.13032E-02 0.13802E-02
 0.13791E-02 0.13760E-02 0.13124E-02 0.12204E-02 0.11429E-02 0.10910E-02 0.10486E-02 0.10056E-02 0.96715E-03 0.93817E-03
 0.92048E-03 0.91851E-03 0.93536E-03 0.96724E-03 0.10092E-02 0.10614E-02 0.11238E-02 0.11920E-02 0.12624E-02 0.13310E-02
 0.13038E-02 0.13174E-02 0.12897E-02 0.12305E-02 0.11668E-02 0.11134E-02 0.10658E-02 0.10154E-02 0.95867E-03 0.89764E-03
 0.84427E-03 0.81968E-03 0.83838E-03 0.89224E-03 0.95784E-03 0.10209E-02 0.10839E-02 0.11492E-02 0.12107E-02 0.12634E-02
 0.12229E-02 0.12343E-02 0.12256E-02 0.11976E-02 0.11598E-02 0.11190E-02 0.10745E-02 0.10194E-02 0.94157E-03 0.83622E-03
 0.72450E-03 0.64863E-03 0.64402E-03 0.71491E-03 0.82905E-03 0.94029E-03 0.10257E-02 0.10928E-02 0.11503E-02 0.11947E-02
 0.11505E-02 0.11568E-02 0.11519E-02 0.11418E-02 0.11270E-02 0.11042E-02 0.10708E-02 0.10211E-02 0.93421E-03 0.79171E-03
 0.61852E-03 0.47765E-03 0.42133E-03 0.46882E-03 0.60702E-03 0.78363E-03 0.93202E-03 0.10261E-02 0.10849E-02 0.11264E-02
 0.10874E-02 0.10959E-02 0.10918E-02 0.10869E-02 0.10844E-02 0.10754E-02 0.10544E-02 0.10193E-02 0.94558E-03 0.79465E-03
 0.57938E-03 0.38068E-03 0.26988E-03 0.26557E-03 0.37000E-03 0.56714E-03 0.78523E-03 0.94158E-03 0.10215E-02 0.10624E-02
 0.10336E-02 0.10479E-02 0.10494E-02 0.10459E-02 0.10462E-02 0.10435E-02 0.10299E-02 0.10088E-02 0.96485E-03 0.84465E-03
 0.62579E-03 0.38429E-03 0.22328E-03 0.17106E-03 0.21733E-03 0.37317E-03 0.61197E-03 0.83293E-03 0.95930E-03 0.10093E-02
 0.99088E-03 0.10065E-02 0.10153E-02 0.10156E-02 0.10155E-02 0.10147E-02 0.10047E-02 0.98992E-03 0.97290E-03 0.90964E-03
 0.73975E-03 0.49081E-03 0.27832E-03 0.17568E-03 0.17421E-03 0.27230E-03 0.47810E-03 0.72299E-03 0.89628E-03 0.96787E-03
 0.96166E-03 0.97247E-03 0.98370E-03 0.98797E-03 0.98798E-03 0.98813E-03 0.98263E-03 0.97045E-03 0.96388E-03 0.94973E-03
 0.86503E-03 0.67316E-03 0.44298E-03 0.28240E-03 0.23056E-03 0.28075E-03 0.43522E-03 0.65698E-03 0.84617E-03 0.93777E-03
 0.94668E-03 0.95047E-03 0.95788E-03 0.96279E-03 0.96254E-03 0.96267E-03 0.96243E-03 0.95612E-03 0.94996E-03 0.95358E-03
 0.93925E-03 0.84916E-03 0.67706E-03 0.49925E-03 0.39640E-03 0.39605E-03 0.49553E-03 0.66554E-03 0.83107E-03 0.92316E-03
 0.94359E-03 0.94143E-03 0.94279E-03 0.94465E-03 0.94270E-03 0.94109E-03 0.94285E-03 0.94424E-03 0.94180E-03 0.94307E-03
 0.95210E-03 0.94074E-03 0.86994E-03 0.74930E-03 0.63965E-03 0.59652E-03 0.63745E-03 0.74222E-03 0.85696E-03 0.92657E-03
 0.94827E-03 0.94147E-03 0.93827E-03 0.93590E-03 0.93069E-03 0.92624E-03 0.92646E-03 0.93121E-03 0.93601E-03 0.93795E-03
 0.94333E-03 0.95467E-03 0.95287E-03 0.91615E-03 0.85506E-03 0.80833E-03 0.80698E-03 0.85049E-03 0.90811E-03 0.94362E-03
 0.96161E-03 0.94933E-03 0.94199E-03 0.93572E-03 0.92662E-03 0.91863E-03 0.91598E-03 0.91933E-03 0.92751E-03 0.93613E-03
 0.94204E-03 0.95049E-03 0.96518E-03 0.97574E-03 0.96992E-03 0.95301E-03 0.94311E-03 0.95016E-03 0.96506E-03 0.97051E-03
 0.98932E-03 0.97036E-03 0.95572E-03 0.94338E-03 0.93005E-03 0.91825E-03 0.91208E-03 0.91255E-03 0.91942E-03 0.93141E-03
 0.94450E-03 0.95659E-03 0.97132E-03 0.99124E-03 0.10107E-02 0.10219E-02 0.10245E-02 0.10230E-02 0.10184E-02 0.10073E-02
 0.10275E-02 0.10048E-02 0.98236E-03 0.96071E-03 0.94101E-03 0.92521E-03 0.91518E-03 0.91214E-03 0.91613E-03 0.92672E-03
 0.94318E-03 0.96303E-03 0.98374E-03 0.10059E-02 0.10304E-02 0.10539E-02 0.10700E-02 0.10739E-02 0.10657E-02 0.10489E-02
 0.10618E-02 0.10373E-02 0.10136E-02 0.98718E-03 0.96066E-03 0.93938E-03 0.92531E-03 0.91840E-03 0.91888E-03 0.92660E-03
 0.94152E-03 0.96340E-03 0.98931E-03 0.10155E-02 0.10425E-02 0.10718E-02 0.10990E-02 0.11137E-02 0.11091E-02 0.10884E-02
 0.10965E-02 0.10594E-02 0.10344E-02 0.10130E-02 0.98717E-03 0.96072E-03 0.94115E-03 0.93023E-03 0.92690E-03 0.93107E-03
 0.94316E-03 0.96330E-03 0.98911E-03 0.10158E-02 0.10434E-02 0.10777E-02 0.11179E-02 0.11506E-02 0.11588E-02 0.11366E-02
 0.11623E-02 0.10973E-02 0.10518E-02 0.10306E-02 0.10131E-02 0.98713E-03 0.96071E-03 0.94341E-03 0.93582E-03 0.93613E-03
 0.94494E-03 0.96336E-03 0.98900E-03 0.10158E-02 0.10426E-02 0.10788E-02 0.11313E-02 0.11881E-02 0.12229E-02 0.12139E-02
 0.12695E-02 0.11822E-02 0.10980E-02 0.10528E-02 0.10349E-02 0.10134E-02 0.98215E-03 0.95561E-03 0.94193E-03 0.93833E-03
 0.94296E-03 0.95823E-03 0.98452E-03 0.10158E-02 0.10469E-02 0.10846E-02 0.11425E-02 0.12184E-02 0.12862E-02 0.13099E-02
 0.13727E-02 0.12948E-02 0.11843E-02 0.11004E-02 0.10613E-02 0.10374E-02 0.10044E-02 0.97017E-03 0.94912E-03 0.94127E-03
 0.94147E-03 0.95078E-03 0.97315E-03 0.10073E-02 0.10468E-02 0.10909E-02 0.11495E-02 0.12293E-02 0.13168E-02 0.13772E-02
 0.23005E-02 0.23290E-02 0.23287E-02 0.21667E-02 0.19036E-02 0.16922E-02 0.15840E-02 0.15299E-02 0.14895E-02 0.14626E-02
 0.14537E-02 0.14633E-02 0.14927E-02 0.15340E-02 0.15911E-02 0.17228E-02 0.19804E-02 0.22711E-02 0.24091E-02 0.23619E-02
 0.23679E-02 0.23500E-02 0.23438E-02 0.22225E-02 0.19762E-02 0.17369E-02 0.15938E-02 0.15268E-02 0.14968E-02 0.14941E-02
 0.15040E-02 0.15017E-02 0.14906E-02 0.14966E-02 0.15305E-02 0.16090E-02 0.17866E-02 0.20690E-02 0.23223E-02 0.24060E-02
 0.24190E-02 0.24190E-02 0.23731E-02 0.22417E-02 0.20099E-02 0.17668E-02 0.16031E-02 0.15304E-02 0.15328E-02 0.16010E-02
 0.16926E-02 0.17321E-02 0.16827E-02 0.15892E-02 0.15271E-02 0.15346E-02 0.16266E-02 0.18261E-02 0.21002E-02 0.23263E-02
 0.22808E-02 0.23780E-02 0.23538E-02 0.22179E-02 0.19994E-02 0.17722E-02 0.16085E-02 0.15385E-02 0.15827E-02 0.17486E-02
 0.19719E-02 0.21284E-02 0.21220E-02 0.19544E-02 0.17285E-02 0.15719E-02 0.15433E-02 0.16349E-02 0.18273E-02 0.20735E-02
 0.19861E-02 0.21469E-02 0.21963E-02 0.21117E-02 0.19366E-02 0.17483E-02 0.16042E-02 0.15377E-02 0.16060E-02 0.18523E-02
 0.22023E-02 0.24934E-02 0.26027E-02 0.24882E-02 0.21840E-02 0.18278E-02 0.15930E-02 0.15430E-02 0.16270E-02 0.17889E-02
 0.17240E-02 0.18520E-02 0.19388E-02 0.19277E-02 0.18277E-02 0.17012E-02 0.15932E-02 0.15276E-02 0.15815E-02 0.18512E-02
 0.22830E-02 0.26727E-02 0.28797E-02 0.28886E-02 0.26807E-02 0.22677E-02 0.18255E-02 0.15702E-02 0.15339E-02 0.16091E-02
 0.15903E-02 0.16534E-02 0.17140E-02 0.17389E-02 0.17065E-02 0.16444E-02 0.15814E-02 0.15222E-02 0.15306E-02 0.17472E-02
 0.21937E-02 0.26579E-02 0.29319E-02 0.30209E-02 0.29627E-02 0.26744E-02 0.21762E-02 0.17232E-02 0.15249E-02 0.15297E-02
 0.15332E-02 0.15691E-02 0.15917E-02 0.16101E-02 0.16090E-02 0.15896E-02 0.15652E-02 0.15259E-02 0.14938E-02 0.16016E-02
 0.19664E-02 0.24663E-02 0.28353E-02 0.29883E-02 0.30116E-02 0.28732E-02 0.24721E-02 0.19431E-02 0.15842E-02 0.14953E-02
 0.14922E-02 0.15283E-02 0.15383E-02 0.15414E-02 0.15440E-02 0.15411E-02 0.15373E-02 0.15237E-02 0.14869E-02 0.14952E-02
 0.16959E-02 0.21168E-02 0.25599E-02 0.28260E-02 0.29132E-02 0.28551E-02 0.25781E-02 0.21038E-02 0.16739E-02 0.14883E-02
 0.14631E-02 0.14934E-02 0.15057E-02 0.15026E-02 0.15015E-02 0.15014E-02 0.15025E-02 0.15042E-02 0.14894E-02 0.14623E-02
 0.15096E-02 0.17386E-02 0.21123E-02 0.24528E-02 0.26348E-02 0.26436E-02 0.24642E-02 0.21060E-02 0.17202E-02 0.14984E-02
 0.14540E-02 0.14716E-02 0.14827E-02 0.14790E-02 0.14754E-02 0.14748E-02 0.14754E-02 0.14789E-02 0.14814E-02 0.14693E-02
 0.14552E-02 0.15096E-02 0.16929E-02 0.19565E-02 0.21752E-02 0.22582E-02 0.21764E-02 0.19511E-02 0.16811E-02 0.15007E-02
 0.14634E-02 0.14711E-02 0.14742E-02 0.14685E-02 0.14641E-02 0.14627E-02 0.14627E-02 0.14642E-02 0.14685E-02 0.14736E-02
 0.14697E-02 0.14632E-02 0.14955E-02 0.15986E-02 0.17388E-02 0.18374E-02 0.18363E-02 0.17350E-02 0.15934E-02 0.14923E-02
 0.14906E-02 0.14913E-02 0.14814E-02 0.14682E-02 0.14616E-02 0.14594E-02 0.14586E-02 0.14597E-02 0.14618E-02 0.14687E-02
 0.14819E-02 0.14905E-02 0.14884E-02 0.14948E-02 0.15297E-02 0.15778E-02 0.16004E-02 0.15773E-02 0.15298E-02 0.14965E-02
 0.15308E-02 0.15250E-02 0.15028E-02 0.14776E-02 0.14636E-02 0.14591E-02 0.14573E-02 0.14576E-02 0.14597E-02 0.14644E-02
 0.14793E-02 0.15049E-02 0.15248E-02 0.15274E-02 0.15237E-02 0.15285E-02 0.15378E-02 0.15382E-02 0.15306E-02 0.15276E-02
 0.15852E-02 0.15670E-02 0.15355E-02 0.14995E-02 0.14737E-02 0.14619E-02 0.14580E-02 0.14574E-02 0.14587E-02 0.14629E-02
 0.14759E-02 0.15033E-02 0.15385E-02 0.15670E-02 0.15834E-02 0.15949E-02 0.16053E-02 0.16095E-02 0.16045E-02 0.15955E-02
 0.16940E-02 0.16425E-02 0.15888E-02 0.15384E-02 0.14982E-02 0.14731E-02 0.14620E-02 0.14592E-02 0.14595E-02 0.14629E-02
 0.14754E-02 0.15023E-02 0.15429E-02 0.15922E-02 0.16469E-02 0.17020E-02 0.17472E-02 0.17705E-02 0.17662E-02 0.17378E-02
 0.19034E-02 0.18035E-02 0.16963E-02 0.16059E-02 0.15409E-02 0.14982E-02 0.14738E-02 0.14637E-02 0.14617E-02 0.14644E-02
 0.14760E-02 0.15024E-02 0.15459E-02 0.16120E-02 0.17089E-02 0.18266E-02 0.19309E-02 0.19913E-02 0.20028E-02 0.19725E-02
 0.21615E-02 0.20494E-02 0.18840E-02 0.17211E-02 0.16056E-02 0.15383E-02 0.14997E-02 0.14777E-02 0.14684E-02 0.14688E-02
 0.14796E-02 0.15035E-02 0.15430E-02 0.16127E-02 0.17406E-02 0.19244E-02 0.21015E-02 0.22031E-02 0.22269E-02 0.22117E-02
 0.23206E-02 0.22693E-02 0.21089E-02 0.18835E-02 0.16952E-02 0.15882E-02 0.15355E-02 0.15029E-02 0.14814E-02 0.14743E-02
 0.14831E-02 0.15065E-02 0.15396E-02 0.15937E-02 0.17151E-02 0.19348E-02 0.21845E-02 0.23364E-02 0.23550E-02 0.23295E-02
 0.23231E-02 0.23488E-02 0.22718E-02 0.20502E-02 0.18022E-02 0.16411E-02 0.15665E-02 0.15246E-02 0.14906E-02 0.14704E-02
 0.14713E-02 0.14937E-02 0.15290E-02 0.15704E-02 0.16543E-02 0.18492E-02 0.21373E-02 0.23630E-02 0.24034E-02 0.23382E-02
 0.24461E-02 0.23891E-02 0.23443E-02 0.24714E-02 0.26577E-02 0.27126E-02 0.26206E-02 0.24870E-02 0.23765E-02 0.23015E-02
 0.22771E-02 0.23115E-02 0.23897E-02 0.25038E-02 0.26339E-02 0.26775E-02 0.25294E-02 0.22909E-02 0.22134E-02 0.23435E-02
 0.23344E-02 0.23583E-02 0.23264E-02 0.24114E-02 0.26052E-02 0.27234E-02 0.26800E-02 0.25477E-02 0.24025E-02 0.22696E-02
 0.21859E-02 0.21964E-02 0.22923E-02 0.24247E-02 0.25664E-02 0.26761E-02 0.26485E-02 0.24467E-02 0.22439E-02 0.22309E-02
 0.21958E-02 0.22273E-02 0.22675E-02 0.23755E-02 0.25654E-02 0.27094E-02 0.27035E-02 0.25727E-02 0.23740E-02 0.21382E-02
 0.19309E-02 0.18564E-02 0.19608E-02 0.21790E-02 0.24079E-02 0.25905E-02 0.26819E-02 0.26151E-02 0.24124E-02 0.22359E-02
 0.22693E-02 0.22019E-02 0.22412E-02 0.23734E-02 0.25592E-02 0.26981E-02 0.27050E-02 0.25728E-02 0.23163E-02 0.19544E-02
 0.15776E-02 0.13408E-02 0.13595E-02 0.16262E-02 0.20119E-02 0.23603E-02 0.25897E-02 0.26778E-02 0.26118E-02 0.24356E-02
 0.25126E-02 0.23863E-02 0.23556E-02 0.24442E-02 0.25923E-02 0.26997E-02 0.26996E-02 0.25725E-02 0.22859E-02 0.18245E-02
 0.12954E-02 0.89140E-03 0.74975E-03 0.91567E-03 0.13496E-02 0.18919E-02 0.23360E-02 0.25897E-02 0.26796E-02 0.26406E-02
 0.26698E-02 0.26046E-02 0.25463E-02 0.25634E-02 0.26403E-02 0.26972E-02 0.26808E-02 0.25741E-02 0.23125E-02 0.18220E-02
 0.11971E-02 0.68013E-03 0.41675E-03 0.41089E-03 0.68888E-03 0.12495E-02 0.18941E-02 0.23617E-02 0.25904E-02 0.26733E-02
 0.26321E-02 0.26559E-02 0.26419E-02 0.26315E-02 0.26497E-02 0.26610E-02 0.26305E-02 0.25544E-02 0.23696E-02 0.19448E-02
 0.12988E-02 0.69783E-03 0.36212E-03 0.25465E-03 0.32709E-03 0.69577E-03 0.13574E-02 0.20166E-02 0.24095E-02 0.25662E-02
 0.25032E-02 0.25532E-02 0.25858E-02 0.25922E-02 0.25916E-02 0.25824E-02 0.25485E-02 0.24975E-02 0.24013E-02 0.21217E-02
 0.15662E-02 0.91551E-03 0.47285E-03 0.29764E-03 0.26617E-03 0.42869E-03 0.93238E-03 0.16366E-02 0.21828E-02 0.24251E-02
 0.23889E-02 0.24235E-02 0.24633E-02 0.24888E-02 0.24940E-02 0.24857E-02 0.24586E-02 0.24207E-02 0.23793E-02 0.22541E-02
 0.18997E-02 0.13275E-02 0.78680E-03 0.48354E-03 0.38439E-03 0.44505E-03 0.77565E-03 0.13763E-02 0.19675E-02 0.22931E-02
 0.23105E-02 0.23320E-02 0.23584E-02 0.23881E-02 0.24017E-02 0.24006E-02 0.23848E-02 0.23552E-02 0.23286E-02 0.22938E-02
 0.21534E-02 0.18085E-02 0.13314E-02 0.92921E-03 0.72297E-03 0.71184E-03 0.92116E-03 0.13611E-02 0.18650E-02 0.21975E-02
 0.22757E-02 0.22825E-02 0.22925E-02 0.23162E-02 0.23330E-02 0.23374E-02 0.23314E-02 0.23130E-02 0.22894E-02 0.22778E-02
 0.22595E-02 0.21530E-02 0.19014E-02 0.15747E-02 0.13169E-02 0.12221E-02 0.13204E-02 0.15956E-02 0.19388E-02 0.21865E-02
 0.23001E-02 0.22791E-02 0.22673E-02 0.22761E-02 0.22882E-02 0.22944E-02 0.22940E-02 0.22866E-02 0.22735E-02 0.22658E-02
 0.22780E-02 0.22935E-02 0.22537E-02 0.21239E-02 0.19526E-02 0.18354E-02 0.18396E-02 0.19661E-02 0.21435E-02 0.22698E-02
 0.23764E-02 0.23250E-02 0.22882E-02 0.22741E-02 0.22710E-02 0.22717E-02 0.22727E-02 0.22716E-02 0.22706E-02 0.22740E-02
 0.22904E-02 0.23298E-02 0.23800E-02 0.24020E-02 0.23720E-02 0.23177E-02 0.22930E-02 0.23225E-02 0.23774E-02 0.24033E-02
 0.24885E-02 0.24134E-02 0.23521E-02 0.23116E-02 0.22853E-02 0.22706E-02 0.22661E-02 0.22665E-02 0.22719E-02 0.22874E-02
 0.23145E-02 0.23576E-02 0.24231E-02 0.24995E-02 0.25564E-02 0.25773E-02 0.25767E-02 0.25770E-02 0.25757E-02 0.25496E-02
 0.26224E-02 0.25366E-02 0.24509E-02 0.23813E-02 0.23283E-02 0.22912E-02 0.22714E-02 0.22662E-02 0.22730E-02 0.22949E-02
 0.23330E-02 0.23872E-02 0.24611E-02 0.25508E-02 0.26336E-02 0.26858E-02 0.27064E-02 0.27117E-02 0.27083E-02 0.26829E-02
 0.27153E-02 0.26588E-02 0.25701E-02 0.24758E-02 0.23949E-02 0.23329E-02 0.22911E-02 0.22707E-02 0.22720E-02 0.22952E-02
 0.23389E-02 0.24026E-02 0.24875E-02 0.25843E-02 0.26653E-02 0.27066E-02 0.27139E-02 0.27134E-02 0.27217E-02 0.27305E-02
 0.26663E-02 0.26893E-02 0.26600E-02 0.25801E-02 0.24821E-02 0.23948E-02 0.23281E-02 0.22852E-02 0.22712E-02 0.22889E-02
 0.23344E-02 0.24037E-02 0.24956E-02 0.25935E-02 0.26560E-02 0.26559E-02 0.26171E-02 0.25875E-02 0.25907E-02 0.26227E-02
 0.24878E-02 0.25700E-02 0.26462E-02 0.26526E-02 0.25803E-02 0.24756E-02 0.23808E-02 0.23111E-02 0.22739E-02 0.22765E-02
 0.23173E-02 0.23899E-02 0.24904E-02 0.25943E-02 0.26393E-02 0.25835E-02 0.24769E-02 0.24117E-02 0.24112E-02 0.24389E-02
 0.23619E-02 0.23994E-02 0.25223E-02 0.26452E-02 0.26600E-02 0.25699E-02 0.24498E-02 0.23511E-02 0.22878E-02 0.22674E-02
 0.22931E-02 0.23598E-02 0.24647E-02 0.25876E-02 0.26487E-02 0.25657E-02 0.23888E-02 0.22801E-02 0.23032E-02 0.23542E-02
 0.23992E-02 0.23437E-02 0.23926E-02 0.25636E-02 0.26870E-02 0.26581E-02 0.25352E-02 0.24120E-02 0.23248E-02 0.22798E-02
 0.22834E-02 0.23330E-02 0.24246E-02 0.25544E-02 0.26602E-02 0.26188E-02 0.24129E-02 0.22339E-02 0.22549E-02 0.23776E-02
 0.61346E-02 0.60821E-02 0.58635E-02 0.54117E-02 0.48794E-02 0.44477E-02 0.41382E-02 0.38892E-02 0.36882E-02 0.35618E-02
 0.35205E-02 0.35662E-02 0.37030E-02 0.39107E-02 0.41695E-02 0.45301E-02 0.50526E-02 0.56290E-02 0.60195E-02 0.61404E-02
 0.61458E-02 0.61164E-02 0.59686E-02 0.56000E-02 0.50752E-02 0.45861E-02 0.42244E-02 0.39536E-02 0.37453E-02 0.36137E-02
 0.35563E-02 0.35526E-02 0.36115E-02 0.37552E-02 0.39755E-02 0.42741E-02 0.47079E-02 0.52747E-02 0.57972E-02 0.60812E-02
 0.60320E-02 0.60684E-02 0.59495E-02 0.56408E-02 0.51702E-02 0.46838E-02 0.42975E-02 0.40166E-02 0.38222E-02 0.37208E-02
 0.36939E-02 0.36872E-02 0.36776E-02 0.37065E-02 0.38244E-02 0.40405E-02 0.43638E-02 0.48213E-02 0.53582E-02 0.58032E-02
 0.56460E-02 0.58137E-02 0.57687E-02 0.55243E-02 0.51306E-02 0.46990E-02 0.43316E-02 0.40620E-02 0.38982E-02 0.38493E-02
 0.38842E-02 0.39263E-02 0.39143E-02 0.38558E-02 0.38236E-02 0.38927E-02 0.40867E-02 0.44011E-02 0.48239E-02 0.52836E-02
 0.50658E-02 0.53185E-02 0.53854E-02 0.52485E-02 0.49618E-02 0.46206E-02 0.43067E-02 0.40645E-02 0.39329E-02 0.39370E-02
 0.40327E-02 0.41290E-02 0.41634E-02 0.41153E-02 0.40023E-02 0.39046E-02 0.39221E-02 0.40865E-02 0.43650E-02 0.47136E-02
 0.45342E-02 0.47668E-02 0.48988E-02 0.48756E-02 0.47129E-02 0.44784E-02 0.42335E-02 0.40208E-02 0.39045E-02 0.39408E-02
 0.40831E-02 0.42108E-02 0.42705E-02 0.42781E-02 0.42125E-02 0.40556E-02 0.39038E-02 0.38917E-02 0.40396E-02 0.42746E-02
 0.41675E-02 0.43463E-02 0.44780E-02 0.45208E-02 0.44585E-02 0.43194E-02 0.41411E-02 0.39553E-02 0.38316E-02 0.38620E-02
 0.40326E-02 0.41967E-02 0.42607E-02 0.42821E-02 0.42949E-02 0.42089E-02 0.39992E-02 0.38219E-02 0.38228E-02 0.39734E-02
 0.39078E-02 0.40628E-02 0.41808E-02 0.42462E-02 0.42416E-02 0.41690E-02 0.40452E-02 0.38889E-02 0.37532E-02 0.37412E-02
 0.38995E-02 0.41120E-02 0.42240E-02 0.42458E-02 0.42744E-02 0.42677E-02 0.41079E-02 0.38527E-02 0.37054E-02 0.37535E-02
 0.37014E-02 0.38381E-02 0.39519E-02 0.40258E-02 0.40505E-02 0.40200E-02 0.39400E-02 0.38208E-02 0.36924E-02 0.36336E-02
 0.37278E-02 0.39443E-02 0.41360E-02 0.42181E-02 0.42470E-02 0.42543E-02 0.41518E-02 0.39098E-02 0.36773E-02 0.36114E-02
 0.35664E-02 0.36575E-02 0.37540E-02 0.38263E-02 0.38647E-02 0.38623E-02 0.38191E-02 0.37421E-02 0.36464E-02 0.35726E-02
 0.35902E-02 0.37355E-02 0.39448E-02 0.41078E-02 0.41854E-02 0.41961E-02 0.41178E-02 0.39225E-02 0.36887E-02 0.35548E-02
 0.35228E-02 0.35567E-02 0.36124E-02 0.36627E-02 0.36973E-02 0.37087E-02 0.36941E-02 0.36570E-02 0.36053E-02 0.35544E-02
 0.35365E-02 0.35930E-02 0.37325E-02 0.39026E-02 0.40310E-02 0.40778E-02 0.40282E-02 0.38843E-02 0.36981E-02 0.35609E-02
 0.35656E-02 0.35542E-02 0.35599E-02 0.35702E-02 0.35805E-02 0.35863E-02 0.35858E-02 0.35791E-02 0.35684E-02 0.35582E-02
 0.35562E-02 0.35769E-02 0.36405E-02 0.37494E-02 0.38691E-02 0.39457E-02 0.39409E-02 0.38543E-02 0.37273E-02 0.36198E-02
 0.36922E-02 0.36469E-02 0.36049E-02 0.35668E-02 0.35372E-02 0.35175E-02 0.35106E-02 0.35189E-02 0.35395E-02 0.35696E-02
 0.36079E-02 0.36507E-02 0.36986E-02 0.37614E-02 0.38409E-02 0.39135E-02 0.39410E-02 0.39056E-02 0.38291E-02 0.37510E-02
 0.38928E-02 0.38213E-02 0.37384E-02 0.36516E-02 0.35741E-02 0.35147E-02 0.34817E-02 0.34837E-02 0.35197E-02 0.35811E-02
 0.36601E-02 0.37464E-02 0.38264E-02 0.38959E-02 0.39631E-02 0.40287E-02 0.40718E-02 0.40687E-02 0.40226E-02 0.39585E-02
 0.41420E-02 0.40472E-02 0.39357E-02 0.38095E-02 0.36845E-02 0.35784E-02 0.35062E-02 0.34822E-02 0.35119E-02 0.35881E-02
 0.36975E-02 0.38236E-02 0.39461E-02 0.40523E-02 0.41475E-02 0.42380E-02 0.43095E-02 0.43340E-02 0.43006E-02 0.42283E-02
 0.44498E-02 0.43080E-02 0.41652E-02 0.40114E-02 0.38487E-02 0.36965E-02 0.35785E-02 0.35152E-02 0.35189E-02 0.35887E-02
 0.37120E-02 0.38669E-02 0.40265E-02 0.41762E-02 0.43240E-02 0.44773E-02 0.46144E-02 0.46913E-02 0.46783E-02 0.45848E-02
 0.48743E-02 0.46451E-02 0.44272E-02 0.42306E-02 0.40382E-02 0.38483E-02 0.36840E-02 0.35741E-02 0.35380E-02 0.35824E-02
 0.37002E-02 0.38689E-02 0.40565E-02 0.42479E-02 0.44597E-02 0.47043E-02 0.49441E-02 0.51094E-02 0.51513E-02 0.50627E-02
 0.53985E-02 0.51012E-02 0.47662E-02 0.44719E-02 0.42295E-02 0.40100E-02 0.38081E-02 0.36506E-02 0.35666E-02 0.35712E-02
 0.36648E-02 0.38295E-02 0.40308E-02 0.42513E-02 0.45197E-02 0.48616E-02 0.52225E-02 0.54939E-02 0.56129E-02 0.55783E-02
 0.58497E-02 0.55923E-02 0.51903E-02 0.47665E-02 0.44254E-02 0.41626E-02 0.39335E-02 0.37366E-02 0.36037E-02 0.35598E-02
 0.36136E-02 0.37564E-02 0.39558E-02 0.41852E-02 0.44770E-02 0.48848E-02 0.53584E-02 0.57380E-02 0.59229E-02 0.59481E-02
 0.60752E-02 0.59397E-02 0.55980E-02 0.51061E-02 0.46449E-02 0.43047E-02 0.40441E-02 0.38188E-02 0.36446E-02 0.35526E-02
 0.35567E-02 0.36590E-02 0.38409E-02 0.40666E-02 0.43470E-02 0.47572E-02 0.52970E-02 0.57888E-02 0.60491E-02 0.61039E-02
 0.85209E-02 0.84573E-02 0.82992E-02 0.80523E-02 0.76832E-02 0.72026E-02 0.66912E-02 0.62361E-02 0.58881E-02 0.56733E-02
 0.56069E-02 0.56914E-02 0.59201E-02 0.62810E-02 0.67415E-02 0.72296E-02 0.76614E-02 0.80017E-02 0.82671E-02 0.84542E-02
 0.84509E-02 0.84517E-02 0.83381E-02 0.81335E-02 0.78207E-02 0.73859E-02 0.68773E-02 0.63803E-02 0.59645E-02 0.56718E-02
 0.55273E-02 0.55398E-02 0.57041E-02 0.60084E-02 0.64313E-02 0.69202E-02 0.73925E-02 0.77841E-02 0.80893E-02 0.83200E-02