VaspCalc                                
   1.00000000000000     
     3.186500    0.000000    0.000000
    -1.593250    2.759590    0.000000
     0.000000    0.000000   20.000000
   S    Mo   W 
     4     1     1
Direct
  0.659025  0.345879  0.692836
  0.659050  0.345864  0.536512
  0.997881  0.001092  0.384376
  0.997833  0.000995  0.228447
  0.664368  0.334294  0.306444
  0.992438  0.012485  0.614603
 
   20   20  126
 0.12703014579E-02 0.12820363493E-02 0.12149729482E-02 0.94627708026E-03 0.61480900026E-03
 0.41606249225E-03 0.36505802170E-03 0.36513668466E-03 0.36547895157E-03 0.36728721611E-03
 0.36727851341E-03 0.36255414597E-03 0.36237017035E-03 0.36176455036E-03 0.36780241703E-03
 0.47202266989E-03 0.76974211385E-03 0.11535636365E-02 0.13644995588E-02 0.13356083279E-02
 0.13435339511E-02 0.13159387733E-02 0.12708959701E-02 0.10616084616E-02 0.72571711521E-03
 0.46031930746E-03 0.35573190401E-03 0.34775564881E-03 0.37134349039E-03 0.41202170320E-03
 0.44528726280E-03 0.43679917289E-03 0.39575852716E-03 0.35959766911E-03 0.34293647111E-03
 0.37763966662E-03 0.55878868459E-03 0.91100551254E-03 0.12519375672E-02 0.13792450279E-02
 0.13809110263E-02 0.13770924842E-02 0.13003323132E-02 0.11018828573E-02 0.78946392211E-03
 0.50578783552E-03 0.36341132575E-03 0.34773353113E-03 0.41219088232E-03 0.53426909879E-03
 0.66158052924E-03 0.70734777283E-03 0.63463462048E-03 0.50033223562E-03 0.38922276414E-03
 0.34458476136E-03 0.40396137370E-03 0.62342220365E-03 0.96633313727E-03 0.12595891140E-02
 0.11747507998E-02 0.12867416588E-02 0.12425445184E-02 0.10568980711E-02 0.77916864576E-03
 0.51976616777E-03 0.37329962667E-03 0.35814366764E-03 0.46807192591E-03 0.69124998763E-03
 0.95306293438E-03 0.11232160127E-02 0.11055619374E-02 0.90830124288E-03 0.64142402326E-03
 0.43548783672E-03 0.35632178795E-03 0.41911288498E-03 0.62679440168E-03 0.92208307076E-03
 0.78640114466E-03 0.96727008697E-03 0.10131643310E-02 0.90084693566E-03 0.69213869725E-03
 0.49059226771E-03 0.36994768795E-03 0.35938125697E-03 0.49580197441E-03 0.79885334343E-03
 0.11798263112E-02 0.14776209456E-02 0.15811955603E-02 0.14549214605E-02 0.11300797965E-02
 0.73988022228E-03 0.45761946917E-03 0.35645350975E-03 0.40618846353E-03 0.56654340728E-03
 0.47895693737E-03 0.60798458340E-03 0.69518741475E-03 0.67470764014E-03 0.56318731376E-03
 0.43923316571E-03 0.35932329782E-03 0.34852515684E-03 0.47276831710E-03 0.80198400575E-03
 0.12568842706E-02 0.16350536553E-02 0.18243726809E-02 0.18306798646E-02 0.16283605824E-02
 0.12094937811E-02 0.73842189020E-03 0.43452280756E-03 0.34464329175E-03 0.37992133613E-03
 0.36830099123E-03 0.41445072833E-03 0.46890497716E-03 0.49028717213E-03 0.45650685608E-03
 0.40131378625E-03 0.35994973181E-03 0.34399649761E-03 0.41868657173E-03 0.70270819494E-03
 0.11778937190E-02 0.16181825884E-02 0.18504100527E-02 0.19247601577E-02 0.18861731827E-02
 0.16228629717E-02 0.11244731769E-02 0.63827045804E-03 0.38799292243E-03 0.34245962654E-03
 0.36095381251E-03 0.37866537409E-03 0.39445203869E-03 0.41076283872E-03 0.40966604804E-03
 0.39284843524E-03 0.37605202303E-03 0.35832794007E-03 0.37555370073E-03 0.55387988915E-03
 0.96786605410E-03 0.14563878340E-02 0.17703358877E-02 0.18828509888E-02 0.19146341270E-02
 0.18158314888E-02 0.14422085912E-02 0.90127466073E-03 0.49792659001E-03 0.35881942334E-03
 0.36217636124E-03 0.38328811038E-03 0.39224914328E-03 0.39805853803E-03 0.40229688439E-03
 0.39840480512E-03 0.39149382416E-03 0.37921363198E-03 0.36593196170E-03 0.43145446735E-03
 0.69762731436E-03 0.11416010952E-02 0.15485310107E-02 0.17614224156E-02 0.18313172569E-02
 0.18008185127E-02 0.15612694428E-02 0.10941624780E-02 0.63087505428E-03 0.39534419921E-03
 0.36323916740E-03 0.37681617172E-03 0.38978283562E-03 0.39369336861E-03 0.39780337010E-03
 0.39770146422E-03 0.39329033011E-03 0.38759420948E-03 0.37532608682E-03 0.37799684117E-03
 0.48233909985E-03 0.76092932184E-03 0.11395852873E-02 0.14465271880E-02 0.15984990379E-02
 0.16101933783E-02 0.14556666215E-02 0.11101432986E-02 0.70330019433E-03 0.43723678900E-03
 0.36909536052E-03 0.37084596597E-03 0.38124605100E-03 0.38392459989E-03 0.38726808053E-03
 0.38950074127E-03 0.38688327596E-03 0.38346733035E-03 0.38033828330E-03 0.37361463085E-03
 0.38668396080E-03 0.48375930534E-03 0.69871207904E-03 0.96423529624E-03 0.11666313643E-02
 0.12400871640E-02 0.11635776294E-02 0.94308286372E-03 0.65920249065E-03 0.44712067763E-03
 0.36969387462E-03 0.37201160096E-03 0.37819893702E-03 0.37801575979E-03 0.37930988341E-03
 0.38205592475E-03 0.38179637179E-03 0.37913728865E-03 0.37822618742E-03 0.37824170796E-03
 0.37420211412E-03 0.37992585023E-03 0.43455680647E-03 0.55596091459E-03 0.70103942984E-03
 0.79622003163E-03 0.79186441786E-03 0.68689335165E-03 0.53422590721E-03 0.41465149949E-03
 0.36702160442E-03 0.37716577489E-03 0.38105817745E-03 0.37815656729E-03 0.37713510215E-03
 0.37830419540E-03 0.37875319571E-03 0.37814478444E-03 0.37718411330E-03 0.37837900944E-03
 0.38066290954E-03 0.37617346921E-03 0.36786166235E-03 0.37830052855E-03 0.42088209847E-03
 0.47328973479E-03 0.49509353663E-03 0.46770953666E-03 0.41319381580E-03 0.37322261501E-03
 0.36544812506E-03 0.38366530717E-03 0.38806917770E-03 0.38298654046E-03 0.37932742483E-03
 0.37814369651E-03 0.37702680824E-03 0.37721894247E-03 0.37822005326E-03 0.37933098036E-03
 0.38358403687E-03 0.38763168767E-03 0.37968918793E-03 0.35958636361E-03 0.34550481935E-03
 0.34943975305E-03 0.35961677941E-03 0.35838179569E-03 0.34840966565E-03 0.34851101127E-03
 0.36529891712E-03 0.38419730139E-03 0.39459074057E-03 0.39220098653E-03 0.38616928526E-03
 0.38185006521E-03 0.37839185562E-03 0.37699503606E-03 0.37880531833E-03 0.38198896579E-03
 0.38701317036E-03 0.39338930391E-03 0.39208279219E-03 0.37709294516E-03 0.36014240311E-03
 0.35739304661E-03 0.36630213803E-03 0.36978497457E-03 0.36153415306E-03 0.35543814827E-03
 0.41485318681E-03 0.39745120705E-03 0.39898352539E-03 0.40150474883E-03 0.39670913733E-03
 0.38862706935E-03 0.38180258452E-03 0.37806826034E-03 0.37830965460E-03 0.38221287337E-03
 0.38963149166E-03 0.39800071761E-03 0.39959481079E-03 0.39427708920E-03 0.39984425456E-03
 0.43193415929E-03 0.47813241326E-03 0.50615417609E-03 0.49531095569E-03 0.45494171327E-03
 0.60677847235E-03 0.50223845629E-03 0.43620955643E-03 0.41261923931E-03 0.40560761885E-03
 0.39659445939E-03 0.38605663920E-03 0.37921058109E-03 0.37709413306E-03 0.37940253806E-03
 0.38730984228E-03 0.39801703527E-03 0.40352348837E-03 0.41075608852E-03 0.45237064264E-03
 0.54873485922E-03 0.66798152702E-03 0.75135632127E-03 0.76484689255E-03 0.70884923420E-03
 0.92986004779E-03 0.75710250351E-03 0.57460008286E-03 0.45608525879E-03 0.41219366026E-03
 0.40115070013E-03 0.39208146369E-03 0.38290486500E-03 0.37812847886E-03 0.37812499184E-03
 0.38396649407E-03 0.39373959141E-03 0.39893587897E-03 0.41133176185E-03 0.48434641674E-03
 0.65522552434E-03 0.86822028526E-03 0.10190640909E-02 0.10669922730E-02 0.10345957939E-02
 0.11978541960E-02 0.10663882122E-02 0.82323564284E-03 0.57552051434E-03 0.43567262650E-03
 0.39828292407E-03 0.39455094922E-03 0.38814573530E-03 0.38096077832E-03 0.37820951997E-03
 0.38138604272E-03 0.38989391754E-03 0.39287660469E-03 0.39502054636E-03 0.46376989405E-03
 0.67633065040E-03 0.98006462898E-03 0.12044099041E-02 0.12663833683E-02 0.12445528074E-02
 0.12728496292E-02 0.12485962899E-02 0.10732493810E-02 0.76351180262E-03 0.50398547464E-03
 0.39684764099E-03 0.38409209707E-03 0.38374909028E-03 0.37652507298E-03 0.37112400448E-03
 0.37043855474E-03 0.37685573582E-03 0.38380703653E-03 0.37949314195E-03 0.41180265792E-03
 0.59453897336E-03 0.94084356500E-03 0.12556633076E-02 0.13515090102E-02 0.12987224924E-02
 0.58931684102E-04 0.66723774843E-04 0.15028858046E-03 0.35894049135E-03 0.57208822737E-03
 0.66641338847E-03 0.65855652864E-03 0.62549884514E-03 0.59765698190E-03 0.57485908598E-03
 0.56761955291E-03 0.58104609823E-03 0.60313511513E-03 0.63121499461E-03 0.65890730043E-03
 0.62156981756E-03 0.44546875226E-03 0.19216896372E-03 0.34337328323E-04 0.28554591722E-04
 0.23744346997E-04 0.42794808650E-04 0.94565437884E-04 0.26106011950E-03 0.49050387256E-03
 0.64289373919E-03 0.67350097112E-03 0.64224334616E-03 0.59677294848E-03 0.54693518432E-03
 0.51334259016E-03 0.52180887620E-03 0.56345334766E-03 0.60968634943E-03 0.64934744023E-03
 0.65759767907E-03 0.56266391744E-03 0.34050715673E-03 0.11117465643E-03 0.13542269642E-04
 0.22577467860E-04 0.24603307274E-04 0.83088575288E-04 0.22805526910E-03 0.44029321335E-03
 0.61313797303E-03 0.67534619900E-03 0.65140671237E-03 0.58461617486E-03 0.49312275900E-03
 0.40842479446E-03 0.38216660351E-03 0.43322715945E-03 0.52411631733E-03 0.60650709091E-03
 0.65708487509E-03 0.64386441900E-03 0.51749054832E-03 0.29847409445E-03 0.10523482384E-03
 0.17480557360E-03 0.10972007119E-03 0.14359499063E-03 0.26679410070E-03 0.44512311949E-03
 0.60096302184E-03 0.67063995573E-03 0.65179258893E-03 0.56630753576E-03 0.43159903163E-03
 0.28706149999E-03 0.19877494101E-03 0.21524144408E-03 0.32744562923E-03 0.47518572255E-03
 0.59561855461E-03 0.65630700213E-03 0.63499096276E-03 0.51436976068E-03 0.33093770277E-03
 0.43038414110E-03 0.33150018745E-03 0.31292599598E-03 0.38331302979E-03 0.50506552312E-03
 0.61591165435E-03 0.66896405235E-03 0.65030032360E-03 0.55558069586E-03 0.39076206141E-03
 0.20251653557E-03 0.62136778752E-04 0.18303914942E-04 0.86396214826E-04 0.24844845915E-03
 0.44165155249E-03 0.58946443021E-03 0.65587761976E-03 0.64145745700E-03 0.55526178311E-03
 0.61448911663E-03 0.55640563177E-03 0.52034393121E-03 0.53587548439E-03 0.59061535643E-03
 0.64473844216E-03 0.66900920247E-03 0.64938147906E-03 0.56067917083E-03 0.38656721561E-03
 0.17560829178E-03 0.14058771427E-04 -.62186707112E-04 -.61783147913E-04 0.29989630605E-04
 0.22100053425E-03 0.44152841070E-03 0.59525213814E-03 0.65631993677E-03 0.65489979151E-03
 0.65789074799E-03 0.65464802308E-03 0.64473683915E-03 0.64230712387E-03 0.65269287127E-03
 0.66267183216E-03 0.66164974960E-03 0.64359241143E-03 0.57629209935E-03 0.41785301315E-03
 0.19832481508E-03 0.22386951031E-04 -.55903015451E-04 -.80938962242E-04 -.72720740903E-04
 0.31668248255E-04 0.24895217386E-03 0.47458933342E-03 0.60605412947E-03 0.64919169539E-03
 0.63176268940E-03 0.64526421062E-03 0.65879556751E-03 0.66551536105E-03 0.66522449475E-03
 0.65752058401E-03 0.64454423393E-03 0.62995403410E-03 0.59013335513E-03 0.47130504490E-03
 0.26581668751E-03 0.66051237667E-04 -.33390318151E-04 -.57207512640E-04 -.76023431177E-04
 -.55964928947E-04 0.89013319581E-04 0.32684000814E-03 0.52289243294E-03 0.60949099237E-03
 0.60324366933E-03 0.61397145973E-03 0.62797902637E-03 0.64131508257E-03 0.64553303149E-03
 0.63921925090E-03 0.62641038140E-03 0.61451262915E-03 0.59514796542E-03 0.52563397939E-03
 0.36898275518E-03 0.16778645782E-03 0.22772883327E-04 -.29889917201E-04 -.47479976544E-04
 -.53006710317E-04 0.23018229228E-04 0.21464704752E-03 0.43070463451E-03 0.56212332017E-03
 0.58033678642E-03 0.59553870302E-03 0.60433812326E-03 0.61517466635E-03 0.62185300511E-03
 0.62119859655E-03 0.61395807761E-03 0.60442056409E-03 0.59378774034E-03 0.56256625878E-03
 0.47445545079E-03 0.32382937161E-03 0.16679750652E-03 0.67533162280E-04 0.28240778050E-04
 0.21390501601E-04 0.65873788969E-04 0.19702022632E-03 0.37780800447E-03 0.51877721097E-03
 0.56590803344E-03 0.58451033841E-03 0.59189200909E-03 0.59880549852E-03 0.60354567236E-03
 0.60498813536E-03 0.60311100465E-03 0.59805326904E-03 0.59121031060E-03 0.57939237260E-03
 0.54633650776E-03 0.47280398419E-03 0.36553822325E-03 0.26268171727E-03 0.19764326026E-03
 0.17661173253E-03 0.20198437332E-03 0.28297696897E-03 0.40239621420E-03 0.50874159196E-03
 0.57287918058E-03 0.58271740136E-03 0.58621838327E-03 0.58897102822E-03 0.58976341025E-03
 0.58932707196E-03 0.58941288525E-03 0.58952143915E-03 0.58828590895E-03 0.58543207784E-03
 0.57908210181E-03 0.56109464718E-03 0.52230898796E-03 0.46665736475E-03 0.41329527780E-03
 0.38269876299E-03 0.38664929629E-03 0.42623622763E-03 0.48720965228E-03 0.54244906327E-03
 0.59684262099E-03 0.59355805760E-03 0.59077435718E-03 0.58819409928E-03 0.58359943360E-03
 0.57886962738E-03 0.57721502979E-03 0.57936739519E-03 0.58391402568E-03 0.58834073646E-03
 0.59130001052E-03 0.59361368253E-03 0.59404652951E-03 0.58771788423E-03 0.57292532316E-03
 0.55697114855E-03 0.55171088515E-03 0.56225592732E-03 0.58089847448E-03 0.59433813135E-03
 0.62594442178E-03 0.61173439502E-03 0.60412010673E-03 0.59817591911E-03 0.58866784569E-03
 0.57832518545E-03 0.57245355334E-03 0.57286879663E-03 0.57945821095E-03 0.58972660250E-03
 0.59849644751E-03 0.60502361201E-03 0.61483090155E-03 0.62970043295E-03 0.64301609542E-03
 0.64882582002E-03 0.64969070954E-03 0.65087452302E-03 0.65039299029E-03 0.64181599615E-03
 0.65924912627E-03 0.63859437002E-03 0.62373457474E-03 0.61443547282E-03 0.60282684189E-03
 0.58797704805E-03 0.57639512648E-03 0.57251579239E-03 0.57737733920E-03 0.58973472243E-03
 0.60370790672E-03 0.61460203538E-03 0.62661791565E-03 0.64461816321E-03 0.66292951438E-03
 0.67242859219E-03 0.67381698690E-03 0.67513833510E-03 0.67819123866E-03 0.67480203927E-03
 0.66905397052E-03 0.66822593762E-03 0.65249265746E-03 0.63552776594E-03 0.62064491100E-03
 0.60412849007E-03 0.58795811656E-03 0.57837208933E-03 0.57901382701E-03 0.58963806162E-03
 0.60558033629E-03 0.62169348311E-03 0.63900249466E-03 0.65757262945E-03 0.66604709196E-03
 0.65375188086E-03 0.62945943903E-03 0.61528958944E-03 0.62451222599E-03 0.64956514288E-03
 0.58109879099E-03 0.64620267482E-03 0.67163699608E-03 0.66164794987E-03 0.64032675970E-03
 0.62059538046E-03 0.60275878988E-03 0.58869473813E-03 0.58372250602E-03 0.59002126405E-03
 0.60407987527E-03 0.62228207543E-03 0.64520385719E-03 0.66572483951E-03 0.65885239755E-03
 0.60633989366E-03 0.52883514176E-03 0.47132148251E-03 0.46344529379E-03 0.50713010972E-03
 0.37415536276E-03 0.50687642456E-03 0.62302629764E-03 0.67140007072E-03 0.66170027350E-03
 0.63547202369E-03 0.61423513373E-03 0.59809889985E-03 0.58826153640E-03 0.58911788013E-03
 0.59919562606E-03 0.61557446240E-03 0.64102020045E-03 0.66614874302E-03 0.64980513800E-03
 0.55565921733E-03 0.41347467861E-03 0.29972569694E-03 0.25761969756E-03 0.28442052615E-03
 0.16415716349E-03 0.28792790351E-03 0.47221855928E-03 0.62153505018E-03 0.67121375821E-03
 0.65243067586E-03 0.62327186722E-03 0.60367761279E-03 0.59064257734E-03 0.58615859578E-03
 0.59191368058E-03 0.60448544103E-03 0.62766428967E-03 0.65893904554E-03 0.65085250077E-03
 0.53884869383E-03 0.34244181415E-03 0.17491352391E-03 0.10915561307E-03 0.11461528142E-03
 0.73111996940E-04 0.12296251295E-03 0.28178001813E-03 0.50005455131E-03 0.64308904364E-03
 0.66764781105E-03 0.63796659922E-03 0.61096649191E-03 0.59346044248E-03 0.58299123306E-03
 0.58456740221E-03 0.59540070530E-03 0.61352901507E-03 0.64482664642E-03 0.65796138594E-03
 0.56958982222E-03 0.35489664339E-03 0.13464322138E-03 0.42815120530E-04 0.54094671896E-04
 0.14132899559E-02 0.13726579764E-02 0.12723339233E-02 0.11676785983E-02 0.11006280194E-02
 0.10629364598E-02 0.10270608413E-02 0.98870591181E-03 0.96053338475E-03 0.94657179939E-03
 0.94207744743E-03 0.94601511401E-03 0.96184336709E-03 0.99153303656E-03 0.10334692510E-02
 0.10848135819E-02 0.11455501441E-02 0.12188771177E-02 0.13032413051E-02 0.13802380436E-02
 0.13790896869E-02 0.13760124211E-02 0.13123554630E-02 0.12203932818E-02 0.11429329919E-02
 0.10910294913E-02 0.10485520768E-02 0.10056245446E-02 0.96715186761E-03 0.93817120628E-03
 0.92047689864E-03 0.91850854281E-03 0.93536451253E-03 0.96723986696E-03 0.10092488086E-02
 0.10614178192E-02 0.11237675480E-02 0.11919705977E-02 0.12623999357E-02 0.13309720180E-02
 0.13037693505E-02 0.13173961239E-02 0.12897321290E-02 0.12305197868E-02 0.11667985147E-02
 0.11133885115E-02 0.10657720756E-02 0.10154200848E-02 0.95867353640E-03 0.89763600535E-03
 0.84427232729E-03 0.81967632547E-03 0.83837531777E-03 0.89223929442E-03 0.95783820097E-03
 0.10208943255E-02 0.10838822446E-02 0.11492334074E-02 0.12106553887E-02 0.12633652203E-02
 0.12228700716E-02 0.12343405083E-02 0.12255971943E-02 0.11976318190E-02 0.11597896614E-02
 0.11189925498E-02 0.10744779927E-02 0.10193918466E-02 0.94157171915E-03 0.83621794408E-03
 0.72450124303E-03 0.64862814276E-03 0.64402187381E-03 0.71490881923E-03 0.82904640278E-03
 0.94029448115E-03 0.10257439669E-02 0.10927976663E-02 0.11503098172E-02 0.11947261656E-02
 0.11505141264E-02 0.11567904534E-02 0.11519095397E-02 0.11417835769E-02 0.11269956637E-02
 0.11041787592E-02 0.10708261178E-02 0.10211409787E-02 0.93421061673E-03 0.79170584117E-03
 0.61852400259E-03 0.47764911898E-03 0.42132855302E-03 0.46881584274E-03 0.60702426774E-03
 0.78362527070E-03 0.93201622565E-03 0.10261036230E-02 0.10848504113E-02 0.11264060598E-02
 0.10874441511E-02 0.10959078483E-02 0.10917783053E-02 0.10869316090E-02 0.10843559406E-02
 0.10753554974E-02 0.10543736437E-02 0.10192826303E-02 0.94557872323E-03 0.79465217456E-03
 0.57938221364E-03 0.38067947654E-03 0.26988008402E-03 0.26557498761E-03 0.37000419696E-03
 0.56714316935E-03 0.78522666162E-03 0.94157761457E-03 0.10214834912E-02 0.10624024040E-02
 0.10335567863E-02 0.10479306031E-02 0.10493585893E-02 0.10459325481E-02 0.10461674010E-02
 0.10434580789E-02 0.10299043595E-02 0.10088094980E-02 0.96484741874E-03 0.84465175556E-03
 0.62578914467E-03 0.38428969341E-03 0.22327614555E-03 0.17106475255E-03 0.21733280253E-03
 0.37317471214E-03 0.61197078399E-03 0.83292675308E-03 0.95930120477E-03 0.10092662413E-02
 0.99088140060E-03 0.10065465991E-02 0.10153485003E-02 0.10155597788E-02 0.10155240282E-02
 0.10146982193E-02 0.10046875789E-02 0.98991862418E-03 0.97290328728E-03 0.90963814120E-03
 0.73975301162E-03 0.49080620985E-03 0.27832338165E-03 0.17567876810E-03 0.17421428259E-03
 0.27230019734E-03 0.47809703658E-03 0.72298967648E-03 0.89627627624E-03 0.96787256954E-03
 0.96166425034E-03 0.97246825292E-03 0.98369632159E-03 0.98796515413E-03 0.98798399155E-03
 0.98813493915E-03 0.98263484931E-03 0.97045336399E-03 0.96387779680E-03 0.94972889868E-03
 0.86502808367E-03 0.67315975856E-03 0.44298317313E-03 0.28240253609E-03 0.23055584151E-03
 0.28074874893E-03 0.43522007620E-03 0.65698086949E-03 0.84617083679E-03 0.93777269892E-03
 0.94667998519E-03 0.95047354235E-03 0.95787617066E-03 0.96278550285E-03 0.96254006708E-03
 0.96267176943E-03 0.96242539057E-03 0.95612062442E-03 0.94995966066E-03 0.95357521707E-03
 0.93925101859E-03 0.84915734774E-03 0.67705991166E-03 0.49924973101E-03 0.39640437171E-03
 0.39605430789E-03 0.49552920129E-03 0.66554416301E-03 0.83106905054E-03 0.92316262205E-03
 0.94358839244E-03 0.94143253417E-03 0.94278798256E-03 0.94464845811E-03 0.94269754155E-03
 0.94109283393E-03 0.94285476948E-03 0.94423708981E-03 0.94180190499E-03 0.94307196904E-03
 0.95210367284E-03 0.94073790149E-03 0.86994330679E-03 0.74930008455E-03 0.63964908072E-03
 0.59652100992E-03 0.63744842913E-03 0.74221724796E-03 0.85695671376E-03 0.92657266524E-03
 0.94826914160E-03 0.94146743669E-03 0.93826558200E-03 0.93590419961E-03 0.93068865421E-03
 0.92624281398E-03 0.92645791488E-03 0.93121276680E-03 0.93600987268E-03 0.93795374980E-03
 0.94332987013E-03 0.95466926117E-03 0.95286891499E-03 0.91614858164E-03 0.85506154271E-03
 0.80832643209E-03 0.80697965262E-03 0.85049059869E-03 0.90810757415E-03 0.94362287956E-03
 0.96161090315E-03 0.94932667006E-03 0.94199259042E-03 0.93571638462E-03 0.92662337151E-03
 0.91862869701E-03 0.91597633757E-03 0.91933003808E-03 0.92751423003E-03 0.93612788070E-03
 0.94204318692E-03 0.95048756249E-03 0.96517651110E-03 0.97573505003E-03 0.96991955173E-03
 0.95300646994E-03 0.94311215832E-03 0.95016487244E-03 0.96506195278E-03 0.97050716814E-03
 0.98931533422E-03 0.97035865458E-03 0.95572295393E-03 0.94337703005E-03 0.93005393254E-03
 0.91825184300E-03 0.91208482559E-03 0.91254609452E-03 0.91942185157E-03 0.93140731392E-03
 0.94450460684E-03 0.95658604336E-03 0.97131829715E-03 0.99124289502E-03 0.10106512851E-02
 0.10218559733E-02 0.10244961177E-02 0.10230140115E-02 0.10183904572E-02 0.10073198027E-02
 0.10274618572E-02 0.10047755421E-02 0.98236183489E-03 0.96071455754E-03 0.94101178586E-03
 0.92521210767E-03 0.91518136458E-03 0.91214240001E-03 0.91613202249E-03 0.92671521815E-03
 0.94318223024E-03 0.96303376763E-03 0.98373541704E-03 0.10058860707E-02 0.10304141125E-02
 0.10539326100E-02 0.10699777598E-02 0.10739195817E-02 0.10657468404E-02 0.10488733694E-02
 0.10617789513E-02 0.10372662939E-02 0.10135840933E-02 0.98717721650E-03 0.96065927956E-03
 0.93938057836E-03 0.92531121024E-03 0.91840467345E-03 0.91887887980E-03 0.92659642890E-03
 0.94152198336E-03 0.96340042142E-03 0.98931244012E-03 0.10155386111E-02 0.10424570602E-02
 0.10718158194E-02 0.10989883547E-02 0.11137061833E-02 0.11091494820E-02 0.10883555081E-02
 0.10964826847E-02 0.10594057407E-02 0.10343703805E-02 0.10130343073E-02 0.98717418424E-03
 0.96071953232E-03 0.94115271594E-03 0.93023484936E-03 0.92689530081E-03 0.93106718386E-03
 0.94315640410E-03 0.96329961618E-03 0.98911023668E-03 0.10158184207E-02 0.10434410290E-02
 0.10776874617E-02 0.11179258634E-02 0.11506299174E-02 0.11588032431E-02 0.11366150129E-02
 0.11623348916E-02 0.10972540206E-02 0.10517730841E-02 0.10305653704E-02 0.10130653557E-02
 0.98713117728E-03 0.96071276298E-03 0.94340517801E-03 0.93581806536E-03 0.93612511975E-03
 0.94494370579E-03 0.96336194078E-03 0.98899529382E-03 0.10157749903E-02 0.10426124272E-02
 0.10788479554E-02 0.11312712932E-02 0.11880930647E-02 0.12229205362E-02 0.12138885988E-02
 0.12694692383E-02 0.11822496607E-02 0.10980216238E-02 0.10527646996E-02 0.10348614338E-02
 0.10134443010E-02 0.98215300500E-03 0.95560582163E-03 0.94192906419E-03 0.93833065729E-03
 0.94295722529E-03 0.95822713869E-03 0.98452046681E-03 0.10158472869E-02 0.10468781747E-02
 0.10845825304E-02 0.11424657588E-02 0.12184464723E-02 0.12861570481E-02 0.13099144704E-02
 0.13727439311E-02 0.12948062327E-02 0.11842635683E-02 0.11004322634E-02 0.10613319961E-02
 0.10374402806E-02 0.10044330396E-02 0.97017305347E-03 0.94912134845E-03 0.94126991377E-03
 0.94146917353E-03 0.95077861065E-03 0.97314778532E-03 0.10072851242E-02 0.10468219348E-02
 0.10909305662E-02 0.11494696110E-02 0.12293162862E-02 0.13168383243E-02 0.13772083815E-02
 0.23005041210E-02 0.23289682735E-02 0.23287416962E-02 0.21666568768E-02 0.19036395126E-02
 0.16922028170E-02 0.15839792760E-02 0.15298578016E-02 0.14895014211E-02 0.14625651483E-02
 0.14537337974E-02 0.14632691263E-02 0.14926533379E-02 0.15339839297E-02 0.15910953431E-02
 0.17228134854E-02 0.19803785741E-02 0.22710940875E-02 0.24091072334E-02 0.23619227669E-02
 0.23678997622E-02 0.23500061086E-02 0.23437902384E-02 0.22224764245E-02 0.19762490561E-02
 0.17368837147E-02 0.15938458630E-02 0.15267740643E-02 0.14967509399E-02 0.14941376234E-02
 0.15039845982E-02 0.15017331359E-02 0.14906450879E-02 0.14965993674E-02 0.15304965904E-02
 0.16090209557E-02 0.17866235929E-02 0.20689839637E-02 0.23223081982E-02 0.24059785690E-02
 0.24189713816E-02 0.24189627729E-02 0.23730716751E-02 0.22416990906E-02 0.20098916103E-02
 0.17668440679E-02 0.16031293005E-02 0.15303642834E-02 0.15327901937E-02 0.16010193862E-02
 0.16925672988E-02 0.17320628585E-02 0.16827005793E-02 0.15891686935E-02 0.15271235901E-02
 0.15345758980E-02 0.16266356673E-02 0.18261381366E-02 0.21002429721E-02 0.23262890812E-02
 0.22808391160E-02 0.23779966407E-02 0.23538479256E-02 0.22179121716E-02 0.19993969717E-02
 0.17721929370E-02 0.16084925726E-02 0.15384783841E-02 0.15827207626E-02 0.17485644702E-02
 0.19718823231E-02 0.21284096399E-02 0.21220050898E-02 0.19544183090E-02 0.17285166226E-02
 0.15719319115E-02 0.15432967207E-02 0.16348901612E-02 0.18272747857E-02 0.20734782654E-02
 0.19860644195E-02 0.21468985091E-02 0.21963166962E-02 0.21116961147E-02 0.19365600585E-02
 0.17483239017E-02 0.16041925261E-02 0.15377028018E-02 0.16060407927E-02 0.18522685916E-02
 0.22023156478E-02 0.24933922542E-02 0.26026829942E-02 0.24881632728E-02 0.21840129787E-02
 0.18278160663E-02 0.15929555853E-02 0.15430217522E-02 0.16270390203E-02 0.17888974549E-02
 0.17239909001E-02 0.18520080738E-02 0.19387735003E-02 0.19277069937E-02 0.18276864491E-02
 0.17011760086E-02 0.15932345931E-02 0.15275747886E-02 0.15815271277E-02 0.18511827989E-02
 0.22829952227E-02 0.26727172750E-02 0.28796670234E-02 0.28885948058E-02 0.26806587056E-02
 0.22677295644E-02 0.18255304743E-02 0.15701756017E-02 0.15338912459E-02 0.16090893318E-02
 0.15903140348E-02 0.16533860100E-02 0.17139860172E-02 0.17389120201E-02 0.17064644508E-02
 0.16443815548E-02 0.15813985484E-02 0.15221520075E-02 0.15305770747E-02 0.17472492659E-02
 0.21936586802E-02 0.26578716521E-02 0.29319289403E-02 0.30209349187E-02 0.29626899483E-02
 0.26744294625E-02 0.21762443042E-02 0.17232005431E-02 0.15249434766E-02 0.15296880408E-02
 0.15332240655E-02 0.15690806983E-02 0.15916735538E-02 0.16100682851E-02 0.16089604526E-02
 0.15895547607E-02 0.15651769250E-02 0.15258935867E-02 0.14938409109E-02 0.16015977928E-02
 0.19663632464E-02 0.24663487856E-02 0.28353115061E-02 0.29883073742E-02 0.30116044040E-02
 0.28732334211E-02 0.24721258502E-02 0.19431177531E-02 0.15841942960E-02 0.14952727528E-02
 0.14922206491E-02 0.15282698210E-02 0.15383495734E-02 0.15413781241E-02 0.15439750577E-02
 0.15410879788E-02 0.15372982810E-02 0.15236781939E-02 0.14869366338E-02 0.14952326745E-02
 0.16958720216E-02 0.21167872158E-02 0.25598628082E-02 0.28259512114E-02 0.29131675844E-02
 0.28550649720E-02 0.25780545719E-02 0.21038369827E-02 0.16738624610E-02 0.14883124679E-02
 0.14630987024E-02 0.14934465699E-02 0.15056743271E-02 0.15026459261E-02 0.15014509548E-02
 0.15013742333E-02 0.15025036351E-02 0.15041745010E-02 0.14894463528E-02 0.14622655969E-02
 0.15095916864E-02 0.17385992811E-02 0.21122861822E-02 0.24528362131E-02 0.26348042197E-02
 0.26435911953E-02 0.24641943132E-02 0.21059712871E-02 0.17202368448E-02 0.14983824149E-02
 0.14540235526E-02 0.14715602835E-02 0.14826666706E-02 0.14790198725E-02 0.14754189172E-02
 0.14748467062E-02 0.14754341547E-02 0.14788950482E-02 0.14813997122E-02 0.14692752979E-02
 0.14551514331E-02 0.15095563943E-02 0.16929126710E-02 0.19564922481E-02 0.21752124357E-02
 0.22582170735E-02 0.21764262926E-02 0.19511468715E-02 0.16810642151E-02 0.15007002592E-02
 0.14634446061E-02 0.14711343230E-02 0.14741713769E-02 0.14684639179E-02 0.14640835225E-02
 0.14626653758E-02 0.14627218454E-02 0.14642248506E-02 0.14685189278E-02 0.14735616046E-02
 0.14697362168E-02 0.14632416895E-02 0.14955318159E-02 0.15986237409E-02 0.17387685468E-02
 0.18374177875E-02 0.18363243497E-02 0.17350345741E-02 0.15933595918E-02 0.14922929359E-02
 0.14905977498E-02 0.14913273513E-02 0.14814413406E-02 0.14681866375E-02 0.14615795462E-02
 0.14593701323E-02 0.14586459234E-02 0.14596580181E-02 0.14618402060E-02 0.14686746515E-02
 0.14819099282E-02 0.14904687539E-02 0.14883593323E-02 0.14948208500E-02 0.15296667954E-02
 0.15778414586E-02 0.16003697619E-02 0.15773164741E-02 0.15297991583E-02 0.14965454149E-02
 0.15307576100E-02 0.15249955531E-02 0.15028121295E-02 0.14775590506E-02 0.14636027096E-02
 0.14591070002E-02 0.14573258579E-02 0.14576389309E-02 0.14596835498E-02 0.14644015205E-02
 0.14793360231E-02 0.15048916561E-02 0.15247765073E-02 0.15274379878E-02 0.15237426189E-02
 0.15285118745E-02 0.15377511149E-02 0.15382093971E-02 0.15305608301E-02 0.15275959806E-02
 0.15852256756E-02 0.15670258271E-02 0.15355328515E-02 0.14995375306E-02 0.14737094644E-02
 0.14619204325E-02 0.14580339207E-02 0.14573624236E-02 0.14587127656E-02 0.14629318795E-02
 0.14758950791E-02 0.15032664624E-02 0.15385246368E-02 0.15669803923E-02 0.15834418954E-02
 0.15949081845E-02 0.16053118120E-02 0.16095107183E-02 0.16045183706E-02 0.15954626210E-02
 0.16939566240E-02 0.16424640327E-02 0.15887730141E-02 0.15383743414E-02 0.14981809507E-02
 0.14730673741E-02 0.14619801195E-02 0.14591982446E-02 0.14594962617E-02 0.14629376547E-02
 0.14753631062E-02 0.15023027420E-02 0.15428513427E-02 0.15922245636E-02 0.16468920579E-02
 0.17020243485E-02 0.17472176411E-02 0.17704606705E-02 0.17661582504E-02 0.17378153960E-02
 0.19033545364E-02 0.18035280289E-02 0.16963214480E-02 0.16058929154E-02 0.15408912158E-02
 0.14982160142E-02 0.14738217433E-02 0.14637386962E-02 0.14617428122E-02 0.14644027970E-02
 0.14759761276E-02 0.15023881857E-02 0.15458890494E-02 0.16120305844E-02 0.17088915249E-02
 0.18265647398E-02 0.19308836825E-02 0.19912694111E-02 0.20027585385E-02 0.19724993057E-02
 0.21615375856E-02 0.20493520171E-02 0.18840184170E-02 0.17211125075E-02 0.16055665793E-02
 0.15382970910E-02 0.14996918242E-02 0.14777411012E-02 0.14683764039E-02 0.14688192420E-02
 0.14796359675E-02 0.15035320482E-02 0.15430068038E-02 0.16127361943E-02 0.17405872154E-02
 0.19244056638E-02 0.21014589011E-02 0.22030940527E-02 0.22269394276E-02 0.22117292078E-02
 0.23206035859E-02 0.22693285898E-02 0.21088810136E-02 0.18835186899E-02 0.16952165215E-02
 0.15881909718E-02 0.15355489011E-02 0.15028605498E-02 0.14813829304E-02 0.14742702277E-02
 0.14831338979E-02 0.15064529622E-02 0.15395930965E-02 0.15936609740E-02 0.17150703027E-02
 0.19347992601E-02 0.21845450302E-02 0.23363876320E-02 0.23549729804E-02 0.23294784028E-02
 0.23231307341E-02 0.23487714500E-02 0.22717744996E-02 0.20501782538E-02 0.18021687084E-02
 0.16410660819E-02 0.15665093394E-02 0.15245713720E-02 0.14905633051E-02 0.14704216160E-02
 0.14713255214E-02 0.14937396119E-02 0.15290260868E-02 0.15704085186E-02 0.16543014175E-02
 0.18491638788E-02 0.21372823238E-02 0.23629851479E-02 0.24033849556E-02 0.23381609608E-02
 0.24460622755E-02 0.23891335746E-02 0.23442864248E-02 0.24713708608E-02 0.26577306514E-02
 0.27125551317E-02 0.26205927114E-02 0.24869899162E-02 0.23764929243E-02 0.23014871354E-02
 0.22770733083E-02 0.23115235134E-02 0.23897183199E-02 0.25037569405E-02 0.26339232781E-02
 0.26774656223E-02 0.25293749993E-02 0.22908800638E-02 0.22134264789E-02 0.23435186132E-02