   6   6   1   0
  0.2931144E+02  0.3186500E-09  0.3186500E-09  0.2000000E-08  0.5000000E-15
  1.000000000000000E-004
  CAR 
 VaspCalc                                
      6.28932985    -14.64567118  301      1.96303556      1.00000000
    -14.646  0.0000E+00  0.0000E+00
    -14.576  0.0000E+00  0.0000E+00
    -14.506  0.0000E+00  0.0000E+00
    -14.436  0.0000E+00  0.0000E+00
    -14.367  0.0000E+00  0.0000E+00
    -14.297  0.0000E+00  0.0000E+00
    -14.227  0.2630E-16  0.1835E-17
    -14.157  0.5554E-13  0.3878E-14
    -14.087  0.4948E-10  0.3457E-11
    -14.018  0.1700E-07  0.1190E-08
    -13.948  0.2265E-05  0.1592E-06
    -13.878  0.1181E-03  0.8401E-05
    -13.808  0.2447E-02  0.1792E-03
    -13.738  0.2099E-01  0.1644E-02
    -13.669  0.8597E-01  0.7643E-02
    -13.599  0.2354E+00  0.2407E-01
    -13.529  0.4805E+00  0.5760E-01
    -13.459  0.5311E+00  0.9466E-01
    -13.390  0.3045E+00  0.1159E+00
    -13.320  0.3191E+00  0.1382E+00
    -13.250  0.6340E+00  0.1824E+00
    -13.180  0.8649E+00  0.2428E+00
    -13.110  0.9515E+00  0.3092E+00
    -13.041  0.8815E+00  0.3707E+00
    -12.971  0.6414E+00  0.4155E+00
    -12.901  0.6163E+00  0.4585E+00
    -12.831  0.1327E+01  0.5511E+00
    -12.762  0.1872E+01  0.6817E+00
    -12.692  0.1497E+01  0.7862E+00
    -12.622  0.1025E+01  0.8577E+00
    -12.552  0.7304E+00  0.9087E+00
    -12.482  0.6928E+00  0.9570E+00
    -12.413  0.1193E+01  0.1040E+01
    -12.343  0.1679E+01  0.1157E+01
    -12.273  0.2014E+01  0.1298E+01
    -12.203  0.1987E+01  0.1437E+01
    -12.133  0.1361E+01  0.1532E+01
    -12.064  0.1444E+01  0.1632E+01
    -11.994  0.2384E+01  0.1799E+01
    -11.924  0.3224E+01  0.2024E+01
    -11.854  0.3748E+01  0.2285E+01
    -11.785  0.4565E+01  0.2604E+01
    -11.715  0.5266E+01  0.2971E+01
    -11.645  0.4869E+01  0.3311E+01
    -11.575  0.5288E+01  0.3680E+01
    -11.505  0.7257E+01  0.4186E+01
    -11.436  0.7653E+01  0.4721E+01
    -11.366  0.7139E+01  0.5219E+01
    -11.296  0.8222E+01  0.5792E+01
    -11.226  0.8628E+01  0.6395E+01
    -11.157  0.7889E+01  0.6945E+01
    -11.087  0.6647E+01  0.7409E+01
    -11.017  0.4579E+01  0.7728E+01
    -10.947  0.2567E+01  0.7908E+01
    -10.877  0.1041E+01  0.7980E+01
    -10.808  0.2501E+00  0.7998E+01
    -10.738  0.3038E-01  0.8000E+01
    -10.668  0.1662E-02  0.8000E+01
    -10.598  0.3803E-04  0.8000E+01
    -10.528  0.3491E-06  0.8000E+01
    -10.459  0.1258E-08  0.8000E+01
    -10.389  0.1757E-11  0.8000E+01
    -10.319  0.9467E-15  0.8000E+01
    -10.249  0.0000E+00  0.8000E+01
    -10.180  0.0000E+00  0.8000E+01
    -10.110  0.0000E+00  0.8000E+01
    -10.040  0.0000E+00  0.8000E+01
     -9.970  0.0000E+00  0.8000E+01
     -9.900  0.0000E+00  0.8000E+01
     -9.831  0.0000E+00  0.8000E+01
     -9.761  0.0000E+00  0.8000E+01
     -9.691  0.0000E+00  0.8000E+01
     -9.621  0.0000E+00  0.8000E+01
     -9.551  0.0000E+00  0.8000E+01
     -9.482  0.0000E+00  0.8000E+01
     -9.412  0.0000E+00  0.8000E+01
     -9.342  0.0000E+00  0.8000E+01
     -9.272  0.0000E+00  0.8000E+01
     -9.203  0.0000E+00  0.8000E+01
     -9.133  0.0000E+00  0.8000E+01
     -9.063  0.0000E+00  0.8000E+01
     -8.993  0.0000E+00  0.8000E+01
     -8.923  0.0000E+00  0.8000E+01
     -8.854  0.0000E+00  0.8000E+01
     -8.784  0.0000E+00  0.8000E+01
     -8.714  0.0000E+00  0.8000E+01
     -8.644  0.0000E+00  0.8000E+01
     -8.575  0.0000E+00  0.8000E+01
     -8.505  0.0000E+00  0.8000E+01
     -8.435  0.0000E+00  0.8000E+01
     -8.365  0.0000E+00  0.8000E+01
     -8.295  0.0000E+00  0.8000E+01
     -8.226  0.0000E+00  0.8000E+01
     -8.156  0.0000E+00  0.8000E+01
     -8.086  0.0000E+00  0.8000E+01
     -8.016  0.0000E+00  0.8000E+01
     -7.946  0.0000E+00  0.8000E+01
     -7.877  0.0000E+00  0.8000E+01
     -7.807  0.0000E+00  0.8000E+01
     -7.737  0.0000E+00  0.8000E+01
     -7.667  0.0000E+00  0.8000E+01
     -7.598  0.0000E+00  0.8000E+01
     -7.528  0.0000E+00  0.8000E+01
     -7.458  0.0000E+00  0.8000E+01
     -7.388  0.0000E+00  0.8000E+01
     -7.318  0.0000E+00  0.8000E+01
     -7.249  0.0000E+00  0.8000E+01
     -7.179  0.0000E+00  0.8000E+01
     -7.109  0.0000E+00  0.8000E+01
     -7.039  0.0000E+00  0.8000E+01
     -6.970  0.0000E+00  0.8000E+01
     -6.900  0.0000E+00  0.8000E+01
     -6.830  0.0000E+00  0.8000E+01
     -6.760  0.0000E+00  0.8000E+01
     -6.690  0.0000E+00  0.8000E+01
     -6.621  0.0000E+00  0.8000E+01
     -6.551  0.0000E+00  0.8000E+01
     -6.481  0.0000E+00  0.8000E+01
     -6.411  0.0000E+00  0.8000E+01
     -6.341  0.0000E+00  0.8000E+01
     -6.272  0.0000E+00  0.8000E+01
     -6.202  0.0000E+00  0.8000E+01
     -6.132  0.0000E+00  0.8000E+01
     -6.062  0.0000E+00  0.8000E+01
     -5.993  0.0000E+00  0.8000E+01
     -5.923  0.2630E-16  0.8000E+01
     -5.853  0.8376E-13  0.8000E+01
     -5.783  0.7773E-10  0.8000E+01
     -5.713  0.2881E-07  0.8000E+01
     -5.644  0.4331E-05  0.8000E+01
     -5.574  0.2686E-03  0.8000E+01
     -5.504  0.6999E-02  0.8001E+01
     -5.434  0.7862E-01  0.8006E+01
     -5.364  0.3980E+00  0.8034E+01
     -5.295  0.9869E+00  0.8103E+01
     -5.225  0.1355E+01  0.8197E+01
     -5.155  0.1186E+01  0.8280E+01
     -5.085  0.1004E+01  0.8350E+01
     -5.016  0.1301E+01  0.8441E+01
     -4.946  0.1746E+01  0.8563E+01
     -4.876  0.2464E+01  0.8735E+01
     -4.806  0.2817E+01  0.8931E+01
     -4.736  0.2458E+01  0.9103E+01
     -4.667  0.2542E+01  0.9280E+01
     -4.597  0.3847E+01  0.9549E+01
     -4.527  0.5481E+01  0.9931E+01
     -4.457  0.6069E+01  0.1035E+02
     -4.388  0.5743E+01  0.1076E+02
     -4.318  0.5161E+01  0.1112E+02
     -4.248  0.5079E+01  0.1147E+02
     -4.178  0.5497E+01  0.1185E+02
     -4.108  0.5374E+01  0.1223E+02
     -4.039  0.4664E+01  0.1255E+02
     -3.969  0.4454E+01  0.1286E+02
     -3.899  0.4540E+01  0.1318E+02
     -3.829  0.4108E+01  0.1347E+02
     -3.759  0.3550E+01  0.1372E+02
     -3.690  0.2974E+01  0.1392E+02
     -3.620  0.2040E+01  0.1407E+02
     -3.550  0.1936E+01  0.1420E+02
     -3.480  0.2909E+01  0.1440E+02
     -3.411  0.3602E+01  0.1466E+02
     -3.341  0.5014E+01  0.1501E+02
     -3.271  0.6233E+01  0.1544E+02
     -3.201  0.5351E+01  0.1581E+02
     -3.131  0.4155E+01  0.1610E+02
     -3.062  0.4359E+01  0.1641E+02
     -2.992  0.5369E+01  0.1678E+02
     -2.922  0.6774E+01  0.1726E+02
     -2.852  0.7521E+01  0.1778E+02
     -2.783  0.5832E+01  0.1819E+02
     -2.713  0.3595E+01  0.1844E+02
     -2.643  0.3286E+01  0.1867E+02
     -2.573  0.3989E+01  0.1895E+02
     -2.503  0.4235E+01  0.1924E+02
     -2.434  0.4190E+01  0.1953E+02
     -2.364  0.5488E+01  0.1992E+02
     -2.294  0.7358E+01  0.2043E+02
     -2.224  0.8524E+01  0.2102E+02
     -2.154  0.8437E+01  0.2161E+02
     -2.085  0.6738E+01  0.2208E+02
     -2.015  0.5074E+01  0.2244E+02
     -1.945  0.4036E+01  0.2272E+02
     -1.875  0.3773E+01  0.2298E+02
     -1.806  0.3923E+01  0.2326E+02
     -1.736  0.4546E+01  0.2357E+02
     -1.666  0.4929E+01  0.2392E+02
     -1.596  0.4379E+01  0.2422E+02
     -1.526  0.3435E+01  0.2446E+02
     -1.457  0.2462E+01  0.2463E+02
     -1.387  0.2028E+01  0.2478E+02
     -1.317  0.2603E+01  0.2496E+02
     -1.247  0.4068E+01  0.2524E+02
     -1.177  0.5281E+01  0.2561E+02
     -1.108  0.5917E+01  0.2602E+02
     -1.038  0.7070E+01  0.2652E+02
     -0.968  0.7638E+01  0.2705E+02
     -0.898  0.7441E+01  0.2757E+02
     -0.829  0.7823E+01  0.2811E+02
     -0.759  0.7859E+01  0.2866E+02
     -0.689  0.7229E+01  0.2917E+02
     -0.619  0.5949E+01  0.2958E+02
     -0.549  0.4379E+01  0.2989E+02
     -0.480  0.3511E+01  0.3013E+02
     -0.410  0.3955E+01  0.3041E+02
     -0.340  0.4682E+01  0.3074E+02
     -0.270  0.4413E+01  0.3104E+02
     -0.201  0.3322E+01  0.3128E+02
     -0.131  0.2471E+01  0.3145E+02
     -0.061  0.2833E+01  0.3165E+02
      0.009  0.4278E+01  0.3194E+02
      0.079  0.5494E+01  0.3233E+02
      0.148  0.5791E+01  0.3273E+02
      0.218  0.5807E+01  0.3314E+02
      0.288  0.6391E+01  0.3358E+02
      0.358  0.6209E+01  0.3402E+02
      0.428  0.4657E+01  0.3434E+02
      0.497  0.3349E+01  0.3458E+02
      0.567  0.3380E+01  0.3481E+02
      0.637  0.3472E+01  0.3505E+02
      0.707  0.3283E+01  0.3528E+02
      0.776  0.2871E+01  0.3548E+02
      0.846  0.2083E+01  0.3563E+02
      0.916  0.1359E+01  0.3572E+02
      0.986  0.1113E+01  0.3580E+02
      1.056  0.8115E+00  0.3586E+02
      1.125  0.3322E+00  0.3588E+02
      1.195  0.1352E+00  0.3589E+02
      1.265  0.3196E+00  0.3591E+02
      1.335  0.5386E+00  0.3595E+02
      1.404  0.3938E+00  0.3598E+02
      1.474  0.1741E+00  0.3599E+02
      1.544  0.9907E-01  0.3600E+02
      1.614  0.4510E-01  0.3600E+02
      1.684  0.9245E-02  0.3600E+02
      1.753  0.7688E-03  0.3600E+02
      1.823  0.2542E-04  0.3600E+02
      1.893  0.3303E-06  0.3600E+02
      1.963  0.1672E-08  0.3600E+02
      2.033  0.3273E-11  0.3600E+02
      2.102  0.3261E-14  0.3600E+02
      2.172  0.1453E-11  0.3600E+02
      2.242  0.1064E-08  0.3600E+02
      2.312  0.3008E-06  0.3600E+02
      2.381  0.3303E-04  0.3600E+02
      2.451  0.1423E-02  0.3600E+02
      2.521  0.2441E-01  0.3600E+02
      2.591  0.1714E+00  0.3601E+02
      2.661  0.5273E+00  0.3605E+02
      2.730  0.8458E+00  0.3611E+02
      2.800  0.1072E+01  0.3618E+02
      2.870  0.1930E+01  0.3632E+02
      2.940  0.3632E+01  0.3657E+02
      3.010  0.5030E+01  0.3692E+02
      3.079  0.5809E+01  0.3733E+02
      3.149  0.5461E+01  0.3771E+02
      3.219  0.4632E+01  0.3803E+02
      3.289  0.4934E+01  0.3838E+02
      3.358  0.5855E+01  0.3879E+02
      3.428  0.6983E+01  0.3927E+02
      3.498  0.8075E+01  0.3984E+02
      3.568  0.8620E+01  0.4044E+02
      3.638  0.8431E+01  0.4103E+02
      3.707  0.7327E+01  0.4154E+02
      3.777  0.6903E+01  0.4202E+02
      3.847  0.8352E+01  0.4260E+02
      3.917  0.9339E+01  0.4325E+02
      3.986  0.7814E+01  0.4380E+02
      4.056  0.6158E+01  0.4423E+02
      4.126  0.5765E+01  0.4463E+02
      4.196  0.5728E+01  0.4503E+02
      4.266  0.4389E+01  0.4534E+02
      4.335  0.2751E+01  0.4553E+02
      4.405  0.2025E+01  0.4567E+02
      4.475  0.2484E+01  0.4584E+02
      4.545  0.3918E+01  0.4612E+02
      4.615  0.5275E+01  0.4649E+02
      4.684  0.4960E+01  0.4683E+02
      4.754  0.3254E+01  0.4706E+02
      4.824  0.2000E+01  0.4720E+02
      4.894  0.1775E+01  0.4732E+02
      4.963  0.2023E+01  0.4746E+02
      5.033  0.2232E+01  0.4762E+02
      5.103  0.2161E+01  0.4777E+02
      5.173  0.1573E+01  0.4788E+02
      5.243  0.8653E+00  0.4794E+02
      5.312  0.5102E+00  0.4798E+02
      5.382  0.2658E+00  0.4799E+02
      5.452  0.7122E-01  0.4800E+02
      5.522  0.8092E-02  0.4800E+02
      5.591  0.3718E-03  0.4800E+02
      5.661  0.6784E-05  0.4800E+02
      5.731  0.4861E-07  0.4800E+02
      5.801  0.1357E-09  0.4800E+02
      5.871  0.1466E-12  0.4800E+02
      5.940  0.5259E-16  0.4800E+02
      6.010  0.0000E+00  0.4800E+02
      6.080  0.0000E+00  0.4800E+02
      6.150  0.0000E+00  0.4800E+02
      6.220  0.0000E+00  0.4800E+02
      6.289  0.0000E+00  0.4800E+02
      6.28932985    -14.64567118  301      1.96303556      1.00000000
    -14.646  0.0000E+00  0.0000E+00  0.0000E+00  0.0000E+00  0.0000E+00  0.0000E+00  0.0000E+00  0.0000E+00  0.0000E+00
    -14.576  0.0000E+00  0.0000E+00  0.0000E+00  0.0000E+00  0.0000E+00  0.0000E+00  0.0000E+00  0.0000E+00  0.0000E+00
    -14.506  0.0000E+00  0.0000E+00  0.0000E+00  0.0000E+00  0.0000E+00  0.0000E+00  0.0000E+00  0.0000E+00  0.0000E+00
    -14.436  0.0000E+00  0.0000E+00  0.0000E+00  0.0000E+00  0.0000E+00  0.0000E+00  0.0000E+00  0.0000E+00  0.0000E+00
    -14.367  0.0000E+00  0.0000E+00  0.0000E+00  0.0000E+00  0.0000E+00  0.0000E+00  0.0000E+00  0.0000E+00  0.0000E+00
    -14.297  0.0000E+00  0.0000E+00  0.0000E+00  0.0000E+00  0.0000E+00  0.0000E+00  0.0000E+00  0.0000E+00  0.0000E+00
    -14.227  0.6390E-17  0.7413E-27  0.1799E-18  0.3470E-26  0.0000E+00  0.0000E+00  0.0000E+00  0.0000E+00  0.0000E+00
    -14.157  0.1350E-13  0.1566E-23  0.3800E-15  0.7328E-23  0.0000E+00  0.0000E+00  0.0000E+00  0.0000E+00  0.0000E+00
    -14.087  0.1202E-10  0.9216E-19  0.3385E-12  0.9728E-19  0.0000E+00  0.0000E+00  0.0000E+00  0.0000E+00  0.0000E+00
    -14.018  0.4130E-08  0.1983E-15  0.1163E-09  0.2002E-15  0.0000E+00  0.0000E+00  0.0000E+00  0.0000E+00  0.0000E+00
    -13.948  0.5504E-06  0.1555E-12  0.1550E-07  0.1558E-12  0.0000E+00  0.0000E+00  0.0000E+00  0.0000E+00  0.0000E+00
    -13.878  0.2870E-04  0.4711E-10  0.8080E-06  0.4716E-10  0.0000E+00  0.0000E+00  0.0000E+00  0.0000E+00  0.0000E+00
    -13.808  0.5947E-03  0.5544E-08  0.1674E-04  0.5548E-08  0.0000E+00  0.0000E+00  0.0000E+00  0.0000E+00  0.0000E+00
    -13.738  0.5101E-02  0.2553E-06  0.1435E-03  0.2555E-06  0.0000E+00  0.0000E+00  0.0000E+00  0.0000E+00  0.0000E+00
    -13.669  0.2092E-01  0.4648E-05  0.5862E-03  0.4650E-05  0.0000E+00  0.0000E+00  0.0000E+00  0.0000E+00  0.0000E+00
    -13.599  0.5741E-01  0.3382E-04  0.1597E-02  0.3382E-04  0.0000E+00  0.0000E+00  0.0000E+00  0.0000E+00  0.0000E+00
    -13.529  0.1173E+00  0.9946E-04  0.3245E-02  0.9946E-04  0.0000E+00  0.0000E+00  0.0000E+00  0.0000E+00  0.0000E+00
    -13.459  0.1298E+00  0.1214E-03  0.3583E-02  0.1214E-03  0.0000E+00  0.0000E+00  0.0000E+00  0.0000E+00  0.0000E+00
    -13.390  0.7452E-01  0.9048E-04  0.2045E-02  0.9049E-04  0.0000E+00  0.0000E+00  0.0000E+00  0.0000E+00  0.0000E+00
    -13.320  0.7817E-01  0.1798E-03  0.2094E-02  0.1799E-03  0.0000E+00  0.0000E+00  0.0000E+00  0.0000E+00  0.0000E+00
    -13.250  0.1520E+00  0.3966E-03  0.4041E-02  0.3966E-03  0.0000E+00  0.0000E+00  0.0000E+00  0.0000E+00  0.0000E+00
    -13.180  0.1925E+00  0.5392E-03  0.5085E-02  0.5392E-03  0.0000E+00  0.0000E+00  0.0000E+00  0.0000E+00  0.0000E+00
    -13.110  0.1716E+00  0.5129E-03  0.4491E-02  0.5127E-03  0.0000E+00  0.0000E+00  0.0000E+00  0.0000E+00  0.0000E+00
    -13.041  0.9520E-01  0.2842E-03  0.2448E-02  0.2839E-03  0.0000E+00  0.0000E+00  0.0000E+00  0.0000E+00  0.0000E+00
    -12.971  0.3572E-01  0.1093E-03  0.8770E-03  0.1093E-03  0.0000E+00  0.0000E+00  0.0000E+00  0.0000E+00  0.0000E+00
    -12.901  0.6953E-01  0.2980E-03  0.1724E-02  0.2986E-03  0.0000E+00  0.0000E+00  0.0000E+00  0.0000E+00  0.0000E+00
    -12.831  0.2101E+00  0.9356E-03  0.5252E-02  0.9362E-03  0.0000E+00  0.0000E+00  0.0000E+00  0.0000E+00  0.0000E+00
    -12.762  0.2821E+00  0.1257E-02  0.7033E-02  0.1256E-02  0.0000E+00  0.0000E+00  0.0000E+00  0.0000E+00  0.0000E+00
    -12.692  0.1909E+00  0.8581E-03  0.4717E-02  0.8575E-03  0.0000E+00  0.0000E+00  0.0000E+00  0.0000E+00  0.0000E+00
    -12.622  0.1479E+00  0.7023E-03  0.3633E-02  0.7023E-03  0.0000E+00  0.0000E+00  0.0000E+00  0.0000E+00  0.0000E+00
    -12.552  0.1367E+00  0.6688E-03  0.3369E-02  0.6680E-03  0.0000E+00  0.0000E+00  0.0000E+00  0.0000E+00  0.0000E+00
    -12.482  0.7502E-01  0.3611E-03  0.1800E-02  0.3603E-03  0.0000E+00  0.0000E+00  0.0000E+00  0.0000E+00  0.0000E+00
    -12.413  0.7025E-01  0.3292E-03  0.1580E-02  0.3300E-03  0.0000E+00  0.0000E+00  0.0000E+00  0.0000E+00  0.0000E+00
    -12.343  0.1833E+00  0.9046E-03  0.4303E-02  0.9069E-03  0.0000E+00  0.0000E+00  0.0000E+00  0.0000E+00  0.0000E+00
    -12.273  0.3466E+00  0.1728E-02  0.8279E-02  0.1729E-02  0.0000E+00  0.0000E+00  0.0000E+00  0.0000E+00  0.0000E+00
    -12.203  0.3687E+00  0.1785E-02  0.8631E-02  0.1782E-02  0.0000E+00  0.0000E+00  0.0000E+00  0.0000E+00  0.0000E+00
    -12.133  0.2591E+00  0.1010E-02  0.5048E-02  0.1007E-02  0.0000E+00  0.0000E+00  0.0000E+00  0.0000E+00  0.0000E+00
    -12.064  0.2894E+00  0.6848E-03  0.3774E-02  0.6850E-03  0.0000E+00  0.0000E+00  0.0000E+00  0.0000E+00  0.0000E+00
    -11.994  0.4050E+00  0.8613E-03  0.4619E-02  0.8611E-03  0.0000E+00  0.0000E+00  0.0000E+00  0.0000E+00  0.0000E+00
    -11.924  0.4694E+00  0.9551E-03  0.4690E-02  0.9556E-03  0.0000E+00  0.0000E+00  0.0000E+00  0.0000E+00  0.0000E+00
    -11.854  0.6010E+00  0.1358E-02  0.7251E-02  0.1361E-02  0.0000E+00  0.0000E+00  0.0000E+00  0.0000E+00  0.0000E+00
    -11.785  0.8589E+00  0.2170E-02  0.1287E-01  0.2172E-02  0.0000E+00  0.0000E+00  0.0000E+00  0.0000E+00  0.0000E+00
    -11.715  0.1014E+01  0.2440E-02  0.1492E-01  0.2437E-02  0.0000E+00  0.0000E+00  0.0000E+00  0.0000E+00  0.0000E+00
    -11.645  0.8824E+00  0.1851E-02  0.1208E-01  0.1847E-02  0.0000E+00  0.0000E+00  0.0000E+00  0.0000E+00  0.0000E+00
    -11.575  0.8568E+00  0.1532E-02  0.1164E-01  0.1533E-02  0.0000E+00  0.0000E+00  0.0000E+00  0.0000E+00  0.0000E+00
    -11.505  0.1164E+01  0.1923E-02  0.1647E-01  0.1927E-02  0.0000E+00  0.0000E+00  0.0000E+00  0.0000E+00  0.0000E+00
    -11.436  0.1297E+01  0.2011E-02  0.1924E-01  0.2013E-02  0.0000E+00  0.0000E+00  0.0000E+00  0.0000E+00  0.0000E+00
    -11.366  0.1221E+01  0.1677E-02  0.1691E-01  0.1675E-02  0.0000E+00  0.0000E+00  0.0000E+00  0.0000E+00  0.0000E+00
    -11.296  0.1402E+01  0.1606E-02  0.1706E-01  0.1603E-02  0.0000E+00  0.0000E+00  0.0000E+00  0.0000E+00  0.0000E+00
    -11.226  0.1447E+01  0.1357E-02  0.1696E-01  0.1356E-02  0.0000E+00  0.0000E+00  0.0000E+00  0.0000E+00  0.0000E+00
    -11.157  0.1172E+01  0.8509E-03  0.1343E-01  0.8519E-03  0.0000E+00  0.0000E+00  0.0000E+00  0.0000E+00  0.0000E+00
    -11.087  0.7483E+00  0.4177E-03  0.8487E-02  0.4204E-03  0.0000E+00  0.0000E+00  0.0000E+00  0.0000E+00  0.0000E+00
    -11.017  0.3118E+00  0.1338E-03  0.3560E-02  0.1361E-03  0.0000E+00  0.0000E+00  0.0000E+00  0.0000E+00  0.0000E+00
    -10.947  0.7316E-01  0.2572E-04  0.8318E-03  0.2669E-04  0.0000E+00  0.0000E+00  0.0000E+00  0.0000E+00  0.0000E+00
    -10.877  0.9106E-02  0.3416E-05  0.9828E-04  0.3625E-05  0.0000E+00  0.0000E+00  0.0000E+00  0.0000E+00  0.0000E+00
    -10.808  0.6314E-03  0.3201E-06  0.5860E-05  0.3446E-06  0.0000E+00  0.0000E+00  0.0000E+00  0.0000E+00  0.0000E+00
    -10.738  0.2849E-04  0.1717E-07  0.2057E-06  0.1880E-07  0.0000E+00  0.0000E+00  0.0000E+00  0.0000E+00  0.0000E+00
    -10.668  0.8689E-06  0.4580E-09  0.5114E-08  0.5202E-09  0.0000E+00  0.0000E+00  0.0000E+00  0.0000E+00  0.0000E+00
    -10.598  0.1496E-07  0.5958E-11  0.8066E-10  0.7179E-11  0.0000E+00  0.0000E+00  0.0000E+00  0.0000E+00  0.0000E+00
    -10.528  0.1208E-09  0.3784E-13  0.6326E-12  0.4850E-13  0.0000E+00  0.0000E+00  0.0000E+00  0.0000E+00  0.0000E+00
    -10.459  0.4119E-12  0.1118E-15  0.2134E-14  0.1497E-15  0.0000E+00  0.0000E+00  0.0000E+00  0.0000E+00  0.0000E+00
    -10.389  0.5619E-15  0.1420E-18  0.2898E-17  0.1946E-18  0.0000E+00  0.0000E+00  0.0000E+00  0.0000E+00  0.0000E+00
    -10.319  0.2939E-18  0.7049E-22  0.1510E-20  0.9884E-22  0.0000E+00  0.0000E+00  0.0000E+00  0.0000E+00  0.0000E+00
    -10.249  0.0000E+00  0.0000E+00  0.0000E+00  0.0000E+00  0.0000E+00  0.0000E+00  0.0000E+00  0.0000E+00  0.0000E+00
    -10.180  0.0000E+00  0.0000E+00  0.0000E+00  0.0000E+00  0.0000E+00  0.0000E+00  0.0000E+00  0.0000E+00  0.0000E+00
    -10.110  0.0000E+00  0.0000E+00  0.0000E+00  0.0000E+00  0.0000E+00  0.0000E+00  0.0000E+00  0.0000E+00  0.0000E+00
    -10.040  0.0000E+00  0.0000E+00  0.0000E+00  0.0000E+00  0.0000E+00  0.0000E+00  0.0000E+00  0.0000E+00  0.0000E+00
     -9.970  0.0000E+00  0.0000E+00  0.0000E+00  0.0000E+00  0.0000E+00  0.0000E+00  0.0000E+00  0.0000E+00  0.0000E+00
     -9.900  0.0000E+00  0.0000E+00  0.0000E+00  0.0000E+00  0.0000E+00  0.0000E+00  0.0000E+00  0.0000E+00  0.0000E+00
     -9.831  0.0000E+00  0.0000E+00  0.0000E+00  0.0000E+00  0.0000E+00  0.0000E+00  0.0000E+00  0.0000E+00  0.0000E+00
     -9.761  0.0000E+00  0.0000E+00  0.0000E+00  0.0000E+00  0.0000E+00  0.0000E+00  0.0000E+00  0.0000E+00  0.0000E+00
     -9.691  0.0000E+00  0.0000E+00  0.0000E+00  0.0000E+00  0.0000E+00  0.0000E+00  0.0000E+00  0.0000E+00  0.0000E+00
     -9.621  0.0000E+00  0.0000E+00  0.0000E+00  0.0000E+00  0.0000E+00  0.0000E+00  0.0000E+00  0.0000E+00  0.0000E+00
     -9.551  0.0000E+00  0.0000E+00  0.0000E+00  0.0000E+00  0.0000E+00  0.0000E+00  0.0000E+00  0.0000E+00  0.0000E+00
     -9.482  0.0000E+00  0.0000E+00  0.0000E+00  0.0000E+00  0.0000E+00  0.0000E+00  0.0000E+00  0.0000E+00  0.0000E+00
     -9.412  0.0000E+00  0.0000E+00  0.0000E+00  0.0000E+00  0.0000E+00  0.0000E+00  0.0000E+00  0.0000E+00  0.0000E+00
     -9.342  0.0000E+00  0.0000E+00  0.0000E+00  0.0000E+00  0.0000E+00  0.0000E+00  0.0000E+00  0.0000E+00  0.0000E+00
     -9.272  0.0000E+00  0.0000E+00  0.0000E+00  0.0000E+00  0.0000E+00  0.0000E+00  0.0000E+00  0.0000E+00  0.0000E+00
     -9.203  0.0000E+00  0.0000E+00  0.0000E+00  0.0000E+00  0.0000E+00  0.0000E+00  0.0000E+00  0.0000E+00  0.0000E+00
     -9.133  0.0000E+00  0.0000E+00  0.0000E+00  0.0000E+00  0.0000E+00  0.0000E+00  0.0000E+00  0.0000E+00  0.0000E+00
     -9.063  0.0000E+00  0.0000E+00  0.0000E+00  0.0000E+00  0.0000E+00  0.0000E+00  0.0000E+00  0.0000E+00  0.0000E+00
     -8.993  0.0000E+00  0.0000E+00  0.0000E+00  0.0000E+00  0.0000E+00  0.0000E+00  0.0000E+00  0.0000E+00  0.0000E+00
     -8.923  0.0000E+00  0.0000E+00  0.0000E+00  0.0000E+00  0.0000E+00  0.0000E+00  0.0000E+00  0.0000E+00  0.0000E+00
     -8.854  0.0000E+00  0.0000E+00  0.0000E+00  0.0000E+00  0.0000E+00  0.0000E+00  0.0000E+00  0.0000E+00  0.0000E+00
     -8.784  0.0000E+00  0.0000E+00  0.0000E+00  0.0000E+00  0.0000E+00  0.0000E+00  0.0000E+00  0.0000E+00  0.0000E+00
     -8.714  0.0000E+00  0.0000E+00  0.0000E+00  0.0000E+00  0.0000E+00  0.0000E+00  0.0000E+00  0.0000E+00  0.0000E+00
     -8.644  0.0000E+00  0.0000E+00  0.0000E+00  0.0000E+00  0.0000E+00  0.0000E+00  0.0000E+00  0.0000E+00  0.0000E+00
     -8.575  0.0000E+00  0.0000E+00  0.0000E+00  0.0000E+00  0.0000E+00  0.0000E+00  0.0000E+00  0.0000E+00  0.0000E+00
     -8.505  0.0000E+00  0.0000E+00  0.0000E+00  0.0000E+00  0.0000E+00  0.0000E+00  0.0000E+00  0.0000E+00  0.0000E+00
     -8.435  0.0000E+00  0.0000E+00  0.0000E+00  0.0000E+00  0.0000E+00  0.0000E+00  0.0000E+00  0.0000E+00  0.0000E+00
     -8.365  0.0000E+00  0.0000E+00  0.0000E+00  0.0000E+00  0.0000E+00  0.0000E+00  0.0000E+00  0.0000E+00  0.0000E+00
     -8.295  0.0000E+00  0.0000E+00  0.0000E+00  0.0000E+00  0.0000E+00  0.0000E+00  0.0000E+00  0.0000E+00  0.0000E+00
     -8.226  0.0000E+00  0.0000E+00  0.0000E+00  0.0000E+00  0.0000E+00  0.0000E+00  0.0000E+00  0.0000E+00  0.0000E+00
     -8.156  0.0000E+00  0.0000E+00  0.0000E+00  0.0000E+00  0.0000E+00  0.0000E+00  0.0000E+00  0.0000E+00  0.0000E+00
     -8.086  0.0000E+00  0.0000E+00  0.0000E+00  0.0000E+00  0.0000E+00  0.0000E+00  0.0000E+00  0.0000E+00  0.0000E+00
     -8.016  0.0000E+00  0.0000E+00  0.0000E+00  0.0000E+00  0.0000E+00  0.0000E+00  0.0000E+00  0.0000E+00  0.0000E+00
     -7.946  0.0000E+00  0.0000E+00  0.0000E+00  0.0000E+00  0.0000E+00  0.0000E+00  0.0000E+00  0.0000E+00  0.0000E+00
     -7.877  0.0000E+00  0.0000E+00  0.0000E+00  0.0000E+00  0.0000E+00  0.0000E+00  0.0000E+00  0.0000E+00  0.0000E+00
     -7.807  0.0000E+00  0.0000E+00  0.0000E+00  0.0000E+00  0.0000E+00  0.0000E+00  0.0000E+00  0.0000E+00  0.0000E+00
     -7.737  0.0000E+00  0.0000E+00  0.0000E+00  0.0000E+00  0.0000E+00  0.0000E+00  0.0000E+00  0.0000E+00  0.0000E+00
     -7.667  0.0000E+00  0.0000E+00  0.0000E+00  0.0000E+00  0.0000E+00  0.0000E+00  0.0000E+00  0.0000E+00  0.0000E+00
     -7.598  0.0000E+00  0.0000E+00  0.0000E+00  0.0000E+00  0.0000E+00  0.0000E+00  0.0000E+00  0.0000E+00  0.0000E+00
     -7.528  0.0000E+00  0.0000E+00  0.0000E+00  0.0000E+00  0.0000E+00  0.0000E+00  0.0000E+00  0.0000E+00  0.0000E+00
     -7.458  0.0000E+00  0.0000E+00  0.0000E+00  0.0000E+00  0.0000E+00  0.0000E+00  0.0000E+00  0.0000E+00  0.0000E+00
     -7.388  0.0000E+00  0.0000E+00  0.0000E+00  0.0000E+00  0.0000E+00  0.0000E+00  0.0000E+00  0.0000E+00  0.0000E+00
     -7.318  0.0000E+00  0.0000E+00  0.0000E+00  0.0000E+00  0.0000E+00  0.0000E+00  0.0000E+00  0.0000E+00  0.0000E+00
     -7.249  0.0000E+00  0.0000E+00  0.0000E+00  0.0000E+00  0.0000E+00  0.0000E+00  0.0000E+00  0.0000E+00  0.0000E+00
     -7.179  0.0000E+00  0.0000E+00  0.0000E+00  0.0000E+00  0.0000E+00  0.0000E+00  0.0000E+00  0.0000E+00  0.0000E+00
     -7.109  0.0000E+00  0.0000E+00  0.0000E+00  0.0000E+00  0.0000E+00  0.0000E+00  0.0000E+00  0.0000E+00  0.0000E+00
     -7.039  0.0000E+00  0.0000E+00  0.0000E+00  0.0000E+00  0.0000E+00  0.0000E+00  0.0000E+00  0.0000E+00  0.0000E+00
     -6.970  0.0000E+00  0.0000E+00  0.0000E+00  0.0000E+00  0.0000E+00  0.0000E+00  0.0000E+00  0.0000E+00  0.0000E+00
     -6.900  0.0000E+00  0.0000E+00  0.0000E+00  0.0000E+00  0.0000E+00  0.0000E+00  0.0000E+00  0.0000E+00  0.0000E+00
     -6.830  0.0000E+00  0.0000E+00  0.0000E+00  0.0000E+00  0.0000E+00  0.0000E+00  0.0000E+00  0.0000E+00  0.0000E+00
     -6.760  0.0000E+00  0.0000E+00  0.0000E+00  0.0000E+00  0.0000E+00  0.0000E+00  0.0000E+00  0.0000E+00  0.0000E+00
     -6.690  0.0000E+00  0.0000E+00  0.0000E+00  0.0000E+00  0.0000E+00  0.0000E+00  0.0000E+00  0.0000E+00  0.0000E+00
     -6.621  0.0000E+00  0.0000E+00  0.0000E+00  0.0000E+00  0.0000E+00  0.0000E+00  0.0000E+00  0.0000E+00  0.0000E+00
     -6.551  0.0000E+00  0.0000E+00  0.0000E+00  0.0000E+00  0.0000E+00  0.0000E+00  0.0000E+00  0.0000E+00  0.0000E+00
     -6.481  0.0000E+00  0.0000E+00  0.0000E+00  0.0000E+00  0.0000E+00  0.0000E+00  0.0000E+00  0.0000E+00  0.0000E+00
     -6.411  0.0000E+00  0.0000E+00  0.0000E+00  0.0000E+00  0.0000E+00  0.0000E+00  0.0000E+00  0.0000E+00  0.0000E+00
     -6.341  0.0000E+00  0.0000E+00  0.0000E+00  0.0000E+00  0.0000E+00  0.0000E+00  0.0000E+00  0.0000E+00  0.0000E+00
     -6.272  0.0000E+00  0.0000E+00  0.0000E+00  0.0000E+00  0.0000E+00  0.0000E+00  0.0000E+00  0.0000E+00  0.0000E+00
     -6.202  0.0000E+00  0.0000E+00  0.0000E+00  0.0000E+00  0.0000E+00  0.0000E+00  0.0000E+00  0.0000E+00  0.0000E+00
     -6.132  0.0000E+00  0.0000E+00  0.0000E+00  0.0000E+00  0.0000E+00  0.0000E+00  0.0000E+00  0.0000E+00  0.0000E+00
     -6.062  0.0000E+00  0.0000E+00  0.0000E+00  0.0000E+00  0.0000E+00  0.0000E+00  0.0000E+00  0.0000E+00  0.0000E+00
     -5.993  0.0000E+00  0.0000E+00  0.0000E+00  0.0000E+00  0.0000E+00  0.0000E+00  0.0000E+00  0.0000E+00  0.0000E+00
     -5.923  0.7107E-18  0.1767E-26  0.2365E-17  0.9709E-26  0.0000E+00  0.0000E+00  0.0000E+00  0.0000E+00  0.0000E+00
     -5.853  0.2075E-14  0.7464E-15  0.6614E-14  0.7220E-15  0.0000E+00  0.0000E+00  0.0000E+00  0.0000E+00  0.0000E+00
     -5.783  0.1841E-11  0.1025E-11  0.5726E-11  0.9961E-12  0.0000E+00  0.0000E+00  0.0000E+00  0.0000E+00  0.0000E+00
     -5.713  0.6409E-09  0.5429E-09  0.1919E-08  0.5298E-09  0.0000E+00  0.0000E+00  0.0000E+00  0.0000E+00  0.0000E+00
     -5.644  0.8868E-07  0.1116E-06  0.2512E-06  0.1093E-06  0.0000E+00  0.0000E+00  0.0000E+00  0.0000E+00  0.0000E+00
     -5.574  0.4964E-05  0.8997E-05  0.1298E-04  0.8850E-05  0.0000E+00  0.0000E+00  0.0000E+00  0.0000E+00  0.0000E+00
     -5.504  0.1150E-03  0.2895E-03  0.2695E-03  0.2858E-03  0.0000E+00  0.0000E+00  0.0000E+00  0.0000E+00  0.0000E+00
     -5.434  0.1140E-02  0.3819E-02  0.2315E-02  0.3785E-02  0.0000E+00  0.0000E+00  0.0000E+00  0.0000E+00  0.0000E+00
     -5.364  0.5140E-02  0.2153E-01  0.8992E-02  0.2141E-01  0.0000E+00  0.0000E+00  0.0000E+00  0.0000E+00  0.0000E+00
     -5.295  0.1213E-01  0.5455E-01  0.2091E-01  0.5444E-01  0.0000E+00  0.0000E+00  0.0000E+00  0.0000E+00  0.0000E+00
     -5.225  0.1853E-01  0.6538E-01  0.4082E-01  0.6542E-01  0.0000E+00  0.0000E+00  0.0000E+00  0.0000E+00  0.0000E+00
     -5.155  0.1951E-01  0.4298E-01  0.5362E-01  0.4307E-01  0.0000E+00  0.0000E+00  0.0000E+00  0.0000E+00  0.0000E+00
     -5.085  0.1504E-01  0.4214E-01  0.3774E-01  0.4205E-01  0.0000E+00  0.0000E+00  0.0000E+00  0.0000E+00  0.0000E+00
     -5.016  0.1473E-01  0.7211E-01  0.2626E-01  0.7202E-01  0.0000E+00  0.0000E+00  0.0000E+00  0.0000E+00  0.0000E+00
     -4.946  0.1987E-01  0.8841E-01  0.4507E-01  0.8839E-01  0.0000E+00  0.0000E+00  0.0000E+00  0.0000E+00  0.0000E+00
     -4.876  0.2737E-01  0.1083E+00  0.7621E-01  0.1083E+00  0.0000E+00  0.0000E+00  0.0000E+00  0.0000E+00  0.0000E+00
     -4.806  0.2745E-01  0.1025E+00  0.8397E-01  0.1026E+00  0.0000E+00  0.0000E+00  0.0000E+00  0.0000E+00  0.0000E+00
     -4.736  0.1837E-01  0.6090E-01  0.6484E-01  0.6111E-01  0.0000E+00  0.0000E+00  0.0000E+00  0.0000E+00  0.0000E+00
     -4.667  0.1101E-01  0.7669E-01  0.4207E-01  0.7670E-01  0.0000E+00  0.0000E+00  0.0000E+00  0.0000E+00  0.0000E+00
     -4.597  0.1346E-01  0.1457E+00  0.5795E-01  0.1456E+00  0.0000E+00  0.0000E+00  0.0000E+00  0.0000E+00  0.0000E+00
     -4.527  0.2374E-01  0.1726E+00  0.1246E+00  0.1729E+00  0.0000E+00  0.0000E+00  0.0000E+00  0.0000E+00  0.0000E+00
     -4.457  0.2921E-01  0.1535E+00  0.1698E+00  0.1543E+00  0.0000E+00  0.0000E+00  0.0000E+00  0.0000E+00  0.0000E+00
     -4.388  0.2043E-01  0.1607E+00  0.1217E+00  0.1613E+00  0.0000E+00  0.0000E+00  0.0000E+00  0.0000E+00  0.0000E+00
     -4.318  0.1099E-01  0.1707E+00  0.5841E-01  0.1705E+00  0.0000E+00  0.0000E+00  0.0000E+00  0.0000E+00  0.0000E+00
     -4.248  0.9584E-02  0.1435E+00  0.3662E-01  0.1427E+00  0.0000E+00  0.0000E+00  0.0000E+00  0.0000E+00  0.0000E+00
     -4.178  0.1069E-01  0.1030E+00  0.3732E-01  0.1023E+00  0.0000E+00  0.0000E+00  0.0000E+00  0.0000E+00  0.0000E+00
     -4.108  0.1103E-01  0.8613E-01  0.4005E-01  0.8576E-01  0.0000E+00  0.0000E+00  0.0000E+00  0.0000E+00  0.0000E+00
     -4.039  0.1115E-01  0.9260E-01  0.4271E-01  0.9232E-01  0.0000E+00  0.0000E+00  0.0000E+00  0.0000E+00  0.0000E+00
     -3.969  0.1277E-01  0.1195E+00  0.5413E-01  0.1194E+00  0.0000E+00  0.0000E+00  0.0000E+00  0.0000E+00  0.0000E+00
     -3.899  0.1505E-01  0.1571E+00  0.5478E-01  0.1576E+00  0.0000E+00  0.0000E+00  0.0000E+00  0.0000E+00  0.0000E+00
     -3.829  0.1555E-01  0.1649E+00  0.3534E-01  0.1652E+00  0.0000E+00  0.0000E+00  0.0000E+00  0.0000E+00  0.0000E+00
     -3.759  0.1230E-01  0.1162E+00  0.2095E-01  0.1153E+00  0.0000E+00  0.0000E+00  0.0000E+00  0.0000E+00  0.0000E+00