    6    6    1    1
  0.2931144E+02  0.3186500E-09  0.3186500E-09  0.2000000E-08  0.5000000E-15
  1.000000000000000E-004
  CAR 
 VaspCalc                                
     36     61     24
 
  0.0000000E+00  0.0000000E+00  0.0000000E+00  0.8264463E-02
    1      -13.645671   1.000000
    2      -13.152739   1.000000
    3      -12.107064   1.000000
    4      -11.867858   1.000000
    5       -5.344042   1.000000
    6       -4.594998   1.000000
    7       -1.768635   1.000000
    8       -1.767971   1.000000
    9       -1.703635   1.000000
   10       -1.702722   1.000000
   11       -1.400556   1.000000
   12       -0.590896   1.000000
   13       -0.586982   1.000000
   14       -0.527750   1.000000
   15       -0.525151   1.000000
   16       -0.348110   1.000000
   17        0.824468   1.000000
   18        1.491935   1.000000
   19        3.687309   0.000000
   20        3.691459   0.000000
   21        3.914116   0.000000
   22        3.924672   0.000000
   23        3.997317   0.000000
   24        4.105220   0.000000
 
  0.9090909E-01  0.0000000E+00  0.0000000E+00  0.1652893E-01
    1      -13.515272   1.000000
    2      -13.037148   1.000000
    3      -12.050210   1.000000
    4      -11.816417   1.000000
    5       -5.189608   1.000000
    6       -4.458969   1.000000
    7       -2.112267   1.000000
    8       -1.965665   1.000000
    9       -1.727193   1.000000
   10       -1.636665   1.000000
   11       -1.576197   1.000000
   12       -1.162780   1.000000
   13       -0.779639   1.000000
   14       -0.733298   1.000000
   15       -0.404810   1.000000
   16        0.000508   1.000000
   17        0.786829   1.000000
   18        1.305728   1.000000
   19        3.547217   0.000000
   20        3.645984   0.000000
   21        3.778857   0.000000
   22        3.871757   0.000000
   23        3.889479   0.000000
   24        3.942503   0.000000
 
  0.1818182E+00  0.0000000E+00  0.0000000E+00  0.1652893E-01
    1      -13.146292   1.000000
    2      -12.710722   1.000000
    3      -11.890401   1.000000
    4      -11.672005   1.000000
    5       -4.788010   1.000000
    6       -4.133872   1.000000
    7       -2.878543   1.000000
    8       -2.548785   1.000000
    9       -2.321353   1.000000
   10       -1.931159   1.000000
   11       -1.285929   1.000000
   12       -1.232690   1.000000
   13       -1.211226   1.000000
   14       -1.192467   1.000000
   15       -0.430390   1.000000
   16       -0.004742   1.000000
   17        0.551964   1.000000
   18        0.747332   1.000000
   19        3.170232   0.000000
   20        3.461992   0.000000
   21        3.476504   0.000000
   22        3.687470   0.000000
   23        3.791556   0.000000
   24        4.062376   0.000000
 
  0.2727273E+00  0.2775558E-16  0.0000000E+00  0.1652893E-01
    1      -12.608816   1.000000
    2      -12.238299   1.000000
    3      -11.662171   1.000000
    4      -11.466390   1.000000
    5       -4.474605   1.000000
    6       -4.050013   1.000000
    7       -3.491928   1.000000
    8       -3.059889   1.000000
    9       -2.875154   1.000000
   10       -2.680864   1.000000
   11       -1.711325   1.000000
   12       -1.662943   1.000000
   13       -0.815279   1.000000
   14       -0.748156   1.000000
   15       -0.707146   1.000000
   16       -0.350469   1.000000
   17        0.070861   1.000000
   18        0.168456   1.000000
   19        3.078019   0.000000
   20        3.202167   0.000000
   21        3.582831   0.000000
   22        3.630518   0.000000
   23        4.007453   0.000000
   24        4.568656   0.000000
 
  0.3636364E+00  0.0000000E+00  0.0000000E+00  0.1652893E-01
    1      -12.034852   1.000000
    2      -11.741843   1.000000
    3      -11.428472   1.000000
    4      -11.257106   1.000000
    5       -4.875844   1.000000
    6       -4.449297   1.000000
    7       -3.694711   1.000000
    8       -3.499057   1.000000
    9       -3.280878   1.000000
   10       -2.912900   1.000000
   11       -2.088121   1.000000
   12       -2.022210   1.000000
   13       -0.956886   1.000000
   14       -0.695676   1.000000
   15       -0.419923   1.000000
   16       -0.310248   1.000000
   17       -0.122858   1.000000
   18        0.033435   1.000000
   19        3.084372   0.000000
   20        3.316688   0.000000
   21        3.691315   0.000000
   22        3.880622   0.000000
   23        4.473887   0.000000
   24        5.057327   0.000000
 
  0.4545455E+00 -0.2775558E-16  0.0000000E+00  0.1652893E-01
    1      -11.636192   1.000000
    2      -11.406431   1.000000
    3      -11.276588   1.000000
    4      -11.121387   1.000000
    5       -5.309953   1.000000
    6       -4.779223   1.000000
    7       -4.029749   1.000000
    8       -3.832210   1.000000
    9       -3.369351   1.000000
   10       -3.021082   1.000000
   11       -2.289151   1.000000
   12       -2.213723   1.000000
   13       -1.047599   1.000000
   14       -0.881533   1.000000
   15       -0.215362   1.000000
   16       -0.064400   1.000000
   17        0.104719   1.000000
   18        0.247312   1.000000
   19        3.097411   0.000000
   20        3.579841   0.000000
   21        3.867584   0.000000
   22        4.278886   0.000000
   23        4.730852   0.000000
   24        5.289330   0.000000
 
  0.0000000E+00  0.9090909E-01  0.0000000E+00  0.1652893E-01
    1      -13.515271   1.000000
    2      -13.037167   1.000000
    3      -12.050190   1.000000
    4      -11.816398   1.000000
    5       -5.189598   1.000000
    6       -4.459018   1.000000
    7       -2.112311   1.000000
    8       -1.966267   1.000000
    9       -1.726757   1.000000
   10       -1.636603   1.000000
   11       -1.575592   1.000000
   12       -1.161621   1.000000
   13       -0.781935   1.000000
   14       -0.733743   1.000000
   15       -0.404017   1.000000
   16        0.000667   1.000000
   17        0.786989   1.000000
   18        1.305542   1.000000
   19        3.544807   0.000000
   20        3.647240   0.000000
   21        3.779738   0.000000
   22        3.878184   0.000000
   23        3.920438   0.000000
   24        3.940700   0.000000
 
  0.9090909E-01  0.9090909E-01  0.0000000E+00  0.1652893E-01
    1      -13.265324   1.000000
    2      -12.815969   1.000000
    3      -11.941618   1.000000
    4      -11.718299   1.000000
    5       -4.906347   1.000000
    6       -4.221473   1.000000
    7       -2.651744   1.000000
    8       -2.377544   1.000000
    9       -2.113649   1.000000
   10       -1.648009   1.000000
   11       -1.410423   1.000000
   12       -1.351802   1.000000
   13       -1.244493   1.000000
   14       -1.204049   1.000000
   15       -0.253536   1.000000
   16        0.130558   1.000000
   17        0.651336   1.000000
   18        0.931898   1.000000
   19        3.255319   0.000000
   20        3.380966   0.000000
   21        3.558293   0.000000
   22        3.657063   0.000000
   23        3.838207   0.000000
   24        3.914744   0.000000
 
  0.1818182E+00  0.9090909E-01  0.0000000E+00  0.1652893E-01
    1      -12.810093   1.000000
    2      -12.414846   1.000000
    3      -11.745866   1.000000
    4      -11.541559   1.000000
    5       -4.489811   1.000000
    6       -3.954689   1.000000
    7       -3.338671   1.000000
    8       -2.860932   1.000000
    9       -2.616876   1.000000
   10       -2.332744   1.000000
   11       -1.878808   1.000000
   12       -1.764592   1.000000
   13       -1.097370   1.000000
   14       -1.018980   1.000000
   15       -0.302716   1.000000
   16       -0.019955   1.000000
   17        0.280472   1.000000
   18        0.382335   1.000000
   19        2.920811   0.000000
   20        3.295048   0.000000
   21        3.382348   0.000000
   22        3.594816   0.000000
   23        3.815611   0.000000
   24        4.145522   0.000000
 
  0.2727273E+00  0.9090909E-01  0.0000000E+00  0.1652893E-01
    1      -12.247155   1.000000
    2      -11.924464   1.000000
    3      -11.509855   1.000000
    4      -11.329126   1.000000
    5       -4.543842   1.000000
    6       -4.195096   1.000000
    7       -3.517560   1.000000
    8       -3.321060   1.000000
    9       -3.113806   1.000000
   10       -2.865678   1.000000
   11       -2.221720   1.000000
   12       -2.064754   1.000000
   13       -0.976799   1.000000
   14       -0.837588   1.000000
   15       -0.599175   1.000000
   16       -0.414912   1.000000
   17        0.065952   1.000000
   18        0.148978   1.000000
   19        2.920220   0.000000
   20        3.298120   0.000000
   21        3.459306   0.000000
   22        3.899220   0.000000
   23        4.071896   0.000000
   24        4.627653   0.000000
 
  0.3636364E+00  0.9090909E-01  0.0000000E+00  0.1652893E-01
    1      -11.745030   1.000000
    2      -11.497169   1.000000
    3      -11.309141   1.000000
    4      -11.149230   1.000000
    5       -5.030307   1.000000
    6       -4.553305   1.000000
    7       -3.930283   1.000000
    8       -3.767066   1.000000
    9       -3.313732   1.000000
   10       -2.942237   1.000000
   11       -2.328908   1.000000
   12       -2.204721   1.000000
   13       -0.965675   1.000000
   14       -0.893475   1.000000
   15       -0.750004   1.000000
   16       -0.685753   1.000000
   17        0.259944   1.000000
   18        0.338345   1.000000
   19        3.103134   0.000000
   20        3.473549   0.000000
   21        3.745588   0.000000
   22        4.163014   0.000000
   23        4.508006   0.000000
   24        5.075719   0.000000
 
  0.4545455E+00  0.9090909E-01  0.0000000E+00  0.1652893E-01
    1      -11.533529   1.000000
    2      -11.321792   1.000000
    3      -11.229766   1.000000
    4      -11.077345   1.000000
    5       -5.248563   1.000000
    6       -4.709729   1.000000
    7       -4.142302   1.000000
    8       -3.975719   1.000000
    9       -3.360463   1.000000
   10       -3.023456   1.000000
   11       -2.341391   1.000000
   12       -2.244523   1.000000
   13       -1.064240   1.000000
   14       -0.881402   1.000000
   15       -0.833749   1.000000
   16       -0.611483   1.000000
   17        0.419922   1.000000
   18        0.517223   1.000000
   19        3.125627   0.000000
   20        3.673929   0.000000
   21        3.844614   0.000000
   22        4.421989   0.000000
   23        4.783907   0.000000
   24        4.970981   0.000000
 
 -0.4545455E+00  0.9090909E-01  0.0000000E+00  0.1652893E-01
    1      -11.745272   1.000000
    2      -11.497216   1.000000
    3      -11.309102   1.000000
    4      -11.148983   1.000000
    5       -5.030278   1.000000
    6       -4.553371   1.000000
    7       -3.929945   1.000000
    8       -3.767341   1.000000
    9       -3.313674   1.000000
   10       -2.942986   1.000000
   11       -2.327767   1.000000
   12       -2.204890   1.000000
   13       -0.976035   1.000000
   14       -0.893627   1.000000
   15       -0.747381   1.000000
   16       -0.677015   1.000000
   17        0.262249   1.000000
   18        0.335804   1.000000
   19        3.103035   0.000000
   20        3.474535   0.000000
   21        3.744260   0.000000
   22        4.165708   0.000000
   23        4.505517   0.000000
   24        5.118445   0.000000
 
 -0.3636364E+00  0.9090909E-01  0.0000000E+00  0.1652893E-01
    1      -12.247404   1.000000
    2      -11.924467   1.000000
    3      -11.509946   1.000000
    4      -11.328794   1.000000
    5       -4.543829   1.000000
    6       -4.195270   1.000000
    7       -3.516703   1.000000
    8       -3.321180   1.000000
    9       -3.114471   1.000000
   10       -2.866977   1.000000
   11       -2.220309   1.000000
   12       -2.064886   1.000000
   13       -0.978684   1.000000
   14       -0.839587   1.000000
   15       -0.602237   1.000000
   16       -0.406827   1.000000
   17        0.068409   1.000000
   18        0.147396   1.000000
   19        2.921049   0.000000
   20        3.297429   0.000000
   21        3.457476   0.000000
   22        3.900223   0.000000
   23        4.071010   0.000000
   24        4.620026   0.000000
 
 -0.2727273E+00  0.9090909E-01  0.0000000E+00  0.1652893E-01
    1      -12.810276   1.000000
    2      -12.414845   1.000000
    3      -11.745986   1.000000
    4      -11.541272   1.000000
    5       -4.490097   1.000000
    6       -3.954608   1.000000
    7       -3.338679   1.000000
    8       -2.860776   1.000000
    9       -2.616522   1.000000
   10       -2.333847   1.000000
   11       -1.879057   1.000000
   12       -1.764243   1.000000
   13       -1.097290   1.000000
   14       -1.019228   1.000000
   15       -0.306537   1.000000
   16       -0.015691   1.000000
   17        0.280873   1.000000
   18        0.385595   1.000000
   19        2.919906   0.000000
   20        3.292647   0.000000
   21        3.381900   0.000000
   22        3.592508   0.000000
   23        3.816962   0.000000
   24        4.145176   0.000000
 
 -0.1818182E+00  0.9090909E-01  0.0000000E+00  0.1652893E-01
    1      -13.265434   1.000000
    2      -12.815970   1.000000
    3      -11.941707   1.000000
    4      -11.718115   1.000000
    5       -4.906634   1.000000
    6       -4.221295   1.000000
    7       -2.652083   1.000000
    8       -2.377632   1.000000
    9       -2.112860   1.000000
   10       -1.647776   1.000000
   11       -1.410305   1.000000
   12       -1.351905   1.000000
   13       -1.247424   1.000000
   14       -1.202470   1.000000
   15       -0.255192   1.000000
   16        0.132828   1.000000
   17        0.650718   1.000000
   18        0.936456   1.000000
   19        3.251159   0.000000
   20        3.378449   0.000000
   21        3.557723   0.000000
   22        3.658119   0.000000
   23        3.866546   0.000000
   24        4.134377   0.000000
 
 -0.9090909E-01  0.9090909E-01  0.0000000E+00  0.1652893E-01
    1      -13.515307   1.000000
    2      -13.037168   1.000000
    3      -12.050221   1.000000
    4      -11.816337   1.000000
    5       -5.189702   1.000000
    6       -4.458955   1.000000
    7       -2.112760   1.000000
    8       -1.966350   1.000000
    9       -1.726266   1.000000
   10       -1.636202   1.000000
   11       -1.575509   1.000000
   12       -1.161140   1.000000
   13       -0.782464   1.000000
   14       -0.735084   1.000000
   15       -0.404240   1.000000
   16        0.001799   1.000000
   17        0.786778   1.000000
   18        1.307476   1.000000
   19        3.544218   0.000000
   20        3.644248   0.000000
   21        3.776178   0.000000
   22        3.866749   0.000000
   23        3.890947   0.000000
   24        3.948743   0.000000
 
  0.0000000E+00  0.1818182E+00  0.0000000E+00  0.1652893E-01
    1      -13.146282   1.000000
    2      -12.710802   1.000000
    3      -11.890324   1.000000
    4      -11.671933   1.000000
    5       -4.788000   1.000000
    6       -4.134024   1.000000
    7       -2.878550   1.000000
    8       -2.549274   1.000000
    9       -2.320914   1.000000
   10       -1.930046   1.000000
   11       -1.285923   1.000000
   12       -1.232806   1.000000
   13       -1.211760   1.000000
   14       -1.193441   1.000000
   15       -0.430896   1.000000
   16       -0.004714   1.000000
   17        0.552486   1.000000
   18        0.747598   1.000000
   19        3.170999   0.000000
   20        3.461056   0.000000
   21        3.475857   0.000000
   22        3.687026   0.000000
   23        3.794043   0.000000
   24        4.094148   0.000000
 
  0.9090909E-01  0.1818182E+00  0.0000000E+00  0.1652893E-01
    1      -12.810082   1.000000
    2      -12.414912   1.000000
    3      -11.745809   1.000000
    4      -11.541503   1.000000
    5       -4.489885   1.000000
    6       -3.954696   1.000000
    7       -3.338561   1.000000
    8       -2.861234   1.000000
    9       -2.616653   1.000000
   10       -2.331970   1.000000
   11       -1.878810   1.000000
   12       -1.765966   1.000000
   13       -1.097348   1.000000
   14       -1.018746   1.000000
   15       -0.303976   1.000000
   16       -0.019418   1.000000
   17        0.280527   1.000000
   18        0.383343   1.000000
   19        2.921227   0.000000
   20        3.294420   0.000000
   21        3.382453   0.000000
   22        3.593853   0.000000
   23        3.815835   0.000000
   24        4.145378   0.000000
 
  0.1818182E+00  0.1818182E+00  0.0000000E+00  0.1652893E-01
    1      -12.324212   1.000000
    2      -11.991455   1.000000
    3      -11.538293   1.000000
    4      -11.353899   1.000000
    5       -4.347593   1.000000
    6       -4.043090   1.000000
    7       -3.471460   1.000000
    8       -3.129959   1.000000
    9       -2.957288   1.000000
   10       -2.864024   1.000000
   11       -2.506593   1.000000
   12       -2.176382   1.000000
   13       -1.294581   1.000000
   14       -1.144294   1.000000
   15       -0.318073   1.000000
   16       -0.192597   1.000000
   17        0.113042   1.000000
   18        0.232530   1.000000
   19        2.771962   0.000000
   20        3.227172   0.000000
   21        3.420136   0.000000
   22        3.705626   0.000000
   23        4.003766   0.000000
   24        4.327614   0.000000
 
  0.2727273E+00  0.1818182E+00  0.0000000E+00  0.1652893E-01
    1      -11.814499   1.000000
    2      -11.555872   1.000000
    3      -11.324214   1.000000
    4      -11.160367   1.000000
    5       -4.636606   1.000000
    6       -4.258359   1.000000
    7       -3.847159   1.000000
    8       -3.704996   1.000000
    9       -3.209521   1.000000
   10       -2.820863   1.000000
   11       -2.510961   1.000000
   12       -2.214545   1.000000
   13       -1.731913   1.000000
   14       -1.501638   1.000000
   15       -0.684185   1.000000
   16       -0.537550   1.000000
   17        0.266977   1.000000
   18        0.364076   1.000000
   19        3.017698   0.000000
   20        3.457671   0.000000
   21        3.575908   0.000000
   22        4.007530   0.000000
   23        4.191077   0.000000
   24        4.650447   0.000000
 
  0.3636364E+00  0.1818182E+00  0.0000000E+00  0.1652893E-01
    1      -11.469470   1.000000
    2      -11.269282   1.000000
    3      -11.184511   1.000000
    4      -11.033097   1.000000
    5       -4.867620   1.000000
    6       -4.374148   1.000000
    7       -4.287619   1.000000
    8       -4.135622   1.000000
    9       -3.254233   1.000000
   10       -2.937563   1.000000
   11       -2.394786   1.000000
   12       -2.173819   1.000000
   13       -1.863218   1.000000
   14       -1.586030   1.000000
   15       -1.055892   1.000000
   16       -0.836741   1.000000
   17        0.543529   1.000000
   18        0.667736   1.000000
   19        3.011102   0.000000
   20        3.559603   0.000000
   21        3.860658   0.000000
   22        4.183863   0.000000
   23        4.581859   0.000000
   24        4.885111   0.000000
 
  0.4545455E+00  0.1818182E+00  0.0000000E+00  0.1652893E-01
    1      -11.469833   1.000000
    2      -11.269517   1.000000
    3      -11.184207   1.000000
    4      -11.032807   1.000000
    5       -4.867537   1.000000
    6       -4.374348   1.000000
    7       -4.287559   1.000000
    8       -4.135422   1.000000
    9       -3.253694   1.000000
   10       -2.938727   1.000000
   11       -2.394125   1.000000
   12       -2.174877   1.000000
   13       -1.865204   1.000000
   14       -1.584773   1.000000
   15       -1.054518   1.000000
   16       -0.835475   1.000000
   17        0.542987   1.000000
   18        0.667674   1.000000
   19        3.011227   0.000000
   20        3.560451   0.000000
   21        3.861218   0.000000
   22        4.183526   0.000000
   23        4.582527   0.000000
   24        4.895619   0.000000
 
 -0.4545455E+00  0.1818182E+00  0.0000000E+00  0.1652893E-01
    1      -11.815115   1.000000
    2      -11.555936   1.000000
    3      -11.324213   1.000000
    4      -11.159706   1.000000
    5       -4.636408   1.000000
    6       -4.258269   1.000000
    7       -3.847324   1.000000
    8       -3.703916   1.000000
    9       -3.211387   1.000000
   10       -2.823586   1.000000
   11       -2.509201   1.000000
   12       -2.214314   1.000000
   13       -1.732635   1.000000
   14       -1.501800   1.000000
   15       -0.682923   1.000000
   16       -0.533593   1.000000
   17        0.265826   1.000000
   18        0.363907   1.000000
   19        3.018995   0.000000
   20        3.458465   0.000000
   21        3.575229   0.000000
   22        4.005345   0.000000
   23        4.190860   0.000000
   24        4.648825   0.000000
 
 -0.3636364E+00  0.1818182E+00  0.0000000E+00  0.1652893E-01
    1      -12.324718   1.000000
    2      -11.991454   1.000000
    3      -11.538505   1.000000
    4      -11.353215   1.000000
    5       -4.347172   1.000000
    6       -4.043005   1.000000
    7       -3.473218   1.000000
    8       -3.128245   1.000000
    9       -2.957243   1.000000
   10       -2.867292   1.000000
   11       -2.506829   1.000000
   12       -2.174417   1.000000
   13       -1.294668   1.000000
   14       -1.144882   1.000000
   15       -0.318820   1.000000
   16       -0.186831   1.000000
   17        0.113586   1.000000
   18        0.232024   1.000000
   19        2.771636   0.000000
   20        3.224727   0.000000
   21        3.420250   0.000000
   22        3.703950   0.000000
   23        4.004157   0.000000
   24        4.327998   0.000000
 
 -0.2727273E+00  0.1818182E+00  0.0000000E+00  0.1652893E-01
    1      -12.810417   1.000000
    2      -12.414909   1.000000
    3      -11.746028   1.000000
    4      -11.540989   1.000000
    5       -4.490087   1.000000
    6       -3.954974   1.000000
    7       -3.339107   1.000000
    8       -2.860350   1.000000
    9       -2.615682   1.000000
   10       -2.333644   1.000000
   11       -1.881871   1.000000
   12       -1.763606   1.000000
   13       -1.097151   1.000000
   14       -1.018826   1.000000
   15       -0.303253   1.000000
   16       -0.016814   1.000000
   17        0.282518   1.000000
   18        0.383325   1.000000
   19        2.918430   0.000000
   20        3.294388   0.000000
   21        3.379974   0.000000
   22        3.594450   0.000000
   23        3.815441   0.000000
   24        4.145400   0.000000
 
 -0.1818182E+00  0.1818182E+00  0.0000000E+00  0.1652893E-01
    1      -13.146447   1.000000
    2      -12.710802   1.000000
    3      -11.890453   1.000000
    4      -11.671663   1.000000
    5       -4.788321   1.000000
    6       -4.133930   1.000000
    7       -2.878903   1.000000
    8       -2.549252   1.000000
    9       -2.319874   1.000000
   10       -1.930854   1.000000
   11       -1.286106   1.000000
   12       -1.233043   1.000000
   13       -1.212133   1.000000
   14       -1.193692   1.000000
   15       -0.429369   1.000000
   16       -0.004177   1.000000
   17        0.552619   1.000000
   18        0.749406   1.000000
   19        3.168691   0.000000
   20        3.460639   0.000000
   21        3.475039   0.000000
   22        3.686985   0.000000
   23        3.791501   0.000000
   24        4.066088   0.000000
 
 -0.9090909E-01  0.1818182E+00  0.0000000E+00  0.1652893E-01
    1      -13.265427   1.000000
    2      -12.816024   1.000000
    3      -11.941652   1.000000
    4      -11.718062   1.000000
    5       -4.906604   1.000000
    6       -4.221406   1.000000
    7       -2.652141   1.000000
    8       -2.378295   1.000000
    9       -2.112250   1.000000
   10       -1.646651   1.000000
   11       -1.410203   1.000000
   12       -1.351339   1.000000
   13       -1.247964   1.000000
   14       -1.204257   1.000000
   15       -0.254691   1.000000
   16        0.132463   1.000000
   17        0.651282   1.000000
   18        0.935981   1.000000
   19        3.251934   0.000000
   20        3.377436   0.000000
   21        3.557525   0.000000
   22        3.655964   0.000000
   23        3.838031   0.000000
   24        3.914785   0.000000
 
  0.0000000E+00  0.2727273E+00  0.0000000E+00  0.1652893E-01
    1      -12.608777   1.000000
    2      -12.238481   1.000000
    3      -11.662020   1.000000
    4      -11.466231   1.000000
    5       -4.474856   1.000000
    6       -4.049949   1.000000
    7       -3.491481   1.000000
    8       -3.060566   1.000000
    9       -2.875250   1.000000
   10       -2.680063   1.000000
   11       -1.711670   1.000000
   12       -1.664297   1.000000
   13       -0.815209   1.000000
   14       -0.747924   1.000000
   15       -0.709533   1.000000
   16       -0.349824   1.000000
   17        0.070510   1.000000
   18        0.171485   1.000000
   19        3.077837   0.000000
   20        3.201835   0.000000
   21        3.582640   0.000000
   22        3.630489   0.000000
   23        4.005943   0.000000
   24        4.564117   0.000000
 
  0.9090909E-01  0.2727273E+00  0.0000000E+00  0.1652893E-01
    1      -12.247101   1.000000
    2      -11.924641   1.000000
    3      -11.509735   1.000000
    4      -11.328982   1.000000
    5       -4.544039   1.000000
    6       -4.195222   1.000000
    7       -3.516492   1.000000
    8       -3.321380   1.000000
    9       -3.113031   1.000000
   10       -2.866800   1.000000
   11       -2.221815   1.000000
   12       -2.066232   1.000000
   13       -0.977104   1.000000
   14       -0.837485   1.000000
   15       -0.602334   1.000000
   16       -0.411425   1.000000
   17        0.066007   1.000000
   18        0.150271   1.000000
   19        2.920536   0.000000
   20        3.297806   0.000000
   21        3.459076   0.000000
   22        3.898646   0.000000
   23        4.071146   0.000000
   24        4.636152   0.000000
 
  0.1818182E+00  0.2727273E+00  0.0000000E+00  0.1652893E-01
    1      -11.814440   1.000000
    2      -11.555976   1.000000
    3      -11.324172   1.000000
    4      -11.160280   1.000000
    5       -4.636626   1.000000
    6       -4.258496   1.000000
    7       -3.847135   1.000000
    8       -3.705285   1.000000
    9       -3.207539   1.000000
   10       -2.822544   1.000000
   11       -2.511204   1.000000
   12       -2.215473   1.000000
   13       -1.731918   1.000000
   14       -1.500999   1.000000
   15       -0.687285   1.000000
   16       -0.534143   1.000000
   17        0.267016   1.000000
   18        0.364330   1.000000
   19        3.017829   0.000000
   20        3.457740   0.000000
   21        3.575868   0.000000
   22        4.007406   0.000000
   23        4.190762   0.000000
   24        4.650389   0.000000
 
  0.2727273E+00  0.2727273E+00  0.0000000E+00  0.1652893E-01
    1      -11.449163   1.000000
    2      -11.252683   1.000000
    3      -11.165334   1.000000
    4      -11.013967   1.000000
    5       -4.565015   1.000000
    6       -4.379195   1.000000
    7       -4.203516   1.000000
    8       -4.109587   1.000000
    9       -3.050321   1.000000
   10       -2.787058   1.000000
   11       -2.584855   1.000000
   12       -2.388836   1.000000
   13       -2.264831   1.000000
   14       -2.059130   1.000000
   15       -1.041679   1.000000
   16       -0.827748   1.000000
   17        0.573142   1.000000
   18        0.711141   1.000000
   19        2.916717   0.000000
   20        3.382007   0.000000
   21        3.884092   0.000000
   22        3.985462   0.000000
   23        4.588629   0.000000
   24        4.705675   0.000000
 
  0.3636364E+00  0.2727273E+00  0.0000000E+00  0.1652893E-01
    1      -11.303432   1.000000
    2      -11.132483   1.000000
    3      -11.103912   1.000000
    4      -10.954254   1.000000
    5       -4.590255   1.000000
    6       -4.429592   1.000000
    7       -4.396157   1.000000
    8       -3.900698   1.000000
    9       -3.239652   1.000000
   10       -3.030027   1.000000
   11       -2.718074   1.000000
   12       -2.536526   1.000000
   13       -2.184146   1.000000
   14       -1.991033   1.000000
   15       -1.226271   1.000000
   16       -1.060795   1.000000
   17        0.811890   1.000000
   18        1.003459   1.000000
   19        2.669148   0.000000
   20        3.051626   0.000000
   21        3.884376   0.000000
   22        4.296909   0.000000
   23        4.617300   0.000000
   24        4.999668   0.000000
 
  0.4545455E+00  0.2727273E+00  0.0000000E+00  0.1652893E-01
    1      -11.450203   1.000000
    2      -11.253277   1.000000
    3      -11.164536   1.000000
    4      -11.013152   1.000000
    5       -4.564666   1.000000
    6       -4.380224   1.000000
    7       -4.201770   1.000000
    8       -4.108880   1.000000
    9       -3.052317   1.000000
   10       -2.795312   1.000000
   11       -2.581918   1.000000
   12       -2.387367   1.000000
   13       -2.263748   1.000000
   14       -2.058838   1.000000
   15       -1.029498   1.000000
   16       -0.835184   1.000000
   17        0.571668   1.000000
   18        0.711416   1.000000
   19        2.916975   0.000000
   20        3.383236   0.000000
   21        3.885267   0.000000
   22        3.984928   0.000000
   23        4.589226   0.000000
   24        4.699263   0.000000
 
 -0.4545455E+00  0.2727273E+00  0.0000000E+00  0.1652893E-01
    1      -11.815524   1.000000
    2      -11.556078   1.000000
    3      -11.324172   1.000000
    4      -11.159142   1.000000
    5       -4.636124   1.000000
    6       -4.257256   1.000000
    7       -3.847478   1.000000
    8       -3.702782   1.000000
    9       -3.219546   1.000000
   10       -2.819578   1.000000
   11       -2.510131   1.000000
   12       -2.212893   1.000000
   13       -1.732317   1.000000
   14       -1.501515   1.000000
   15       -0.671160   1.000000
   16       -0.543856   1.000000
   17        0.265977   1.000000
   18        0.363379   1.000000
   19        3.019067   0.000000
   20        3.458257   0.000000