============================================================
MKLROOT=/public/apps/intel/oneapi/mkl/2021.2.0
============================================================
Job ID: sub_vasp
Job name: sub_vasp
Number of nodes: 1
Number of processors: 24
Task is running on the following nodes:
h6
OMP_NUM_THREADS = 1
============================================================

 running on   24 total cores
 distrk:  each k-point on   24 cores,    1 groups
 distr:  one band on    6 cores,    4 groups
 using from now: INCAR     
 vasp.5.4.4.18Apr17-6-g9f103f2a35 (build Jun 26 2021 01:31:14) complex          
  
 POSCAR found type information on POSCAR  S  Mo W 
 POSCAR found :  3 types and       6 ions
 scaLAPACK will be used
 LDA part: xc-table for Pade appr. of Perdew
 POSCAR, INCAR and KPOINTS ok, starting setup
 FFT: planning ...
 WAVECAR not read
 WARNING: random wavefunctions but no delay for mixing, default for NELMDL
 entering main loop
       N       E                     dE             d eps       ncg     rms          rms(c)
DAV:   1     0.206798558949E+03    0.20680E+03   -0.13080E+04  2928   0.101E+03
DAV:   2    -0.287278619001E+02   -0.23553E+03   -0.22837E+03  4152   0.237E+02
DAV:   3    -0.479676114548E+02   -0.19240E+02   -0.19060E+02  3904   0.729E+01
DAV:   4    -0.485143346719E+02   -0.54672E+00   -0.54536E+00  4104   0.134E+01
DAV:   5    -0.485304023131E+02   -0.16068E-01   -0.16054E-01  4032   0.220E+00    0.925E+00
RMM:   6    -0.460873629809E+02    0.24430E+01   -0.14300E+01  3169   0.148E+01    0.323E+00
RMM:   7    -0.455737386894E+02    0.51362E+00   -0.13115E+00  3190   0.461E+00    0.191E+00
RMM:   8    -0.454841439791E+02    0.89595E-01   -0.40842E-01  3312   0.258E+00    0.765E-01
RMM:   9    -0.454738699010E+02    0.10274E-01   -0.53578E-02  3712   0.109E+00    0.306E-01
RMM:  10    -0.454714275595E+02    0.24423E-02   -0.19105E-02  3604   0.540E-01    0.102E-01
RMM:  11    -0.454705833182E+02    0.84424E-03   -0.31776E-03  3723   0.218E-01    0.397E-02
RMM:  12    -0.454704325838E+02    0.15073E-03   -0.70565E-04  3737   0.951E-02    0.245E-02
RMM:  13    -0.454704054867E+02    0.27097E-04   -0.31274E-04  3681   0.680E-02    0.188E-02
RMM:  14    -0.454705686810E+02   -0.16319E-03   -0.23694E-04  3674   0.532E-02    0.178E-02
RMM:  15    -0.454706789668E+02   -0.11029E-03   -0.10895E-04  3659   0.382E-02    0.847E-03
RMM:  16    -0.454707746878E+02   -0.95721E-04   -0.15479E-05  3479   0.155E-02    0.485E-03
RMM:  17    -0.454708048357E+02   -0.30148E-04   -0.11473E-05  3601   0.140E-02    0.346E-03
RMM:  18    -0.454708154745E+02   -0.10639E-04   -0.16986E-06  2501   0.571E-03    0.882E-04
RMM:  19    -0.454708173217E+02   -0.18472E-05   -0.45711E-07  2197   0.301E-03    0.302E-04
RMM:  20    -0.454708176450E+02   -0.32332E-06   -0.12332E-07  1515   0.181E-03
   1 F= -.47162994E+02 E0= -.47162994E+02  d E =-.107170E-12
