 vasp.5.4.4.18Apr17-6-g9f103f2a35 (build Jun 26 2021 01:31:14) complex          
  
 executed on             LinuxIFC date 2021.07.11  12:46:12
 running on   24 total cores
 distrk:  each k-point on   24 cores,    1 groups
 distr:  one band on NCORES_PER_BAND=   6 cores,    4 groups


--------------------------------------------------------------------------------------------------------


 INCAR:
 POTCAR:    PAW_PBE S 17Jan2003                   
 POTCAR:   PAW_PBE Mo 08Apr2002                   
 POTCAR:   PAW_PBE W 08Apr2002                    
 POTCAR:    PAW_PBE S 17Jan2003                   
  local pseudopotential read in
  partial core-charges read in
  atomic valenz-charges read in
  non local Contribution for L=           0  read in
    real space projection operators read in
  non local Contribution for L=           0  read in
    real space projection operators read in
  non local Contribution for L=           1  read in
    real space projection operators read in
  non local Contribution for L=           1  read in
    real space projection operators read in
    PAW grid and wavefunctions read in
 
   number of l-projection  operators is LMAX  =           4
   number of lm-projection operators is LMMAX =           8
 
 POTCAR:   PAW_PBE Mo 08Apr2002                   
  local pseudopotential read in
  partial core-charges read in
  atomic valenz-charges read in
  non local Contribution for L=           2  read in
    real space projection operators read in
  non local Contribution for L=           2  read in
    real space projection operators read in
  non local Contribution for L=           0  read in
    real space projection operators read in
  non local Contribution for L=           0  read in
    real space projection operators read in
  non local Contribution for L=           1  read in
    real space projection operators read in
  non local Contribution for L=           1  read in
    real space projection operators read in
    PAW grid and wavefunctions read in
 
   number of l-projection  operators is LMAX  =           6
   number of lm-projection operators is LMMAX =          18
 
 POTCAR:   PAW_PBE W 08Apr2002                    
  local pseudopotential read in
  partial core-charges read in
  atomic valenz-charges read in
  non local Contribution for L=           2  read in
    real space projection operators read in
  non local Contribution for L=           2  read in
    real space projection operators read in
  non local Contribution for L=           0  read in
    real space projection operators read in
  non local Contribution for L=           0  read in
    real space projection operators read in
  non local Contribution for L=           1  read in
    real space projection operators read in
  non local Contribution for L=           1  read in
    real space projection operators read in
    PAW grid and wavefunctions read in
 
   number of l-projection  operators is LMAX  =           6
   number of lm-projection operators is LMMAX =          18
 
  PAW_PBE S 17Jan2003                   :
 energy of atom  1       EATOM= -276.8230
 kinetic energy error for atom=    0.0046 (will be added to EATOM!!)
 PAW_PBE Mo 08Apr2002                   :
 energy of atom  2       EATOM= -217.5180
 kinetic energy error for atom=    0.0025 (will be added to EATOM!!)
 PAW_PBE W 08Apr2002                    :
 energy of atom  3       EATOM= -204.6100
 kinetic energy error for atom=    0.0024 (will be added to EATOM!!)
 
 
 POSCAR: convert from MoS2WS2C7.car  14:23:52 03/
  positions in direct lattice
  velocities in cartesian coordinates
 exchange correlation table for  LEXCH =        8
   RHO(1)=    0.500       N(1)  =     2000
   RHO(2)=  100.500       N(2)  =     4000
 


--------------------------------------------------------------------------------------------------------


 ion  position               nearest neighbor table
   1  0.659  0.346  0.693-   6 2.41   6 2.41   6 2.42
   2  0.659  0.346  0.537-   6 2.41   6 2.41   6 2.41
   3  0.998  0.001  0.384-   5 2.41   5 2.41   5 2.41
   4  0.998  0.001  0.228-   5 2.41   5 2.41   5 2.41
   5  0.664  0.334  0.306-   3 2.41   3 2.41   3 2.41   4 2.41   4 2.41   4 2.41
   6  0.992  0.012  0.615-   2 2.41   2 2.41   2 2.41   1 2.41   1 2.41   1 2.42
 
  LATTYP: Found a hexagonal cell.
 ALAT       =     3.1864999999
 C/A-ratio  =     6.2764788956
  
  Lattice vectors:
  
 A1 = (   3.1865000000,   0.0000000000,   0.0000000000)
 A2 = (  -1.5932500000,   2.7595899490,   0.0000000000)
 A3 = (   0.0000000000,   0.0000000000,  20.0000000000)


Analysis of symmetry for initial positions (statically):
=====================================================================
 Subroutine PRICEL returns:
 Original cell was already a primitive cell.
 

 Routine SETGRP: Setting up the symmetry group for a 
 hexagonal supercell.


 Subroutine GETGRP returns: Found  1 space group operations
 (whereof  1 operations were pure point group operations)
 out of a pool of 24 trial point group operations.


The static configuration has the point symmetry C_1 .


Analysis of symmetry for dynamics (positions and initial velocities):
=====================================================================
 Subroutine PRICEL returns:
 Original cell was already a primitive cell.
 

 Routine SETGRP: Setting up the symmetry group for a 
 hexagonal supercell.


 Subroutine GETGRP returns: Found  1 space group operations
 (whereof  1 operations were pure point group operations)
 out of a pool of 24 trial point group operations.


The dynamic configuration has the point symmetry C_1 .


Analysis of constrained symmetry for selective dynamics:
=====================================================================
 Subroutine PRICEL returns:
 Original cell was already a primitive cell.
 

 Routine SETGRP: Setting up the symmetry group for a 
 hexagonal supercell.


 Subroutine GETGRP returns: Found  1 space group operations
 (whereof  1 operations were pure point group operations)
 out of a pool of 24 trial point group operations.


The constrained configuration has the point symmetry C_1 .


 Subroutine INISYM returns: Found  1 space group operations
 (whereof  1 operations are pure point group operations),
 and found     1 'primitive' translations

 
 
 KPOINTS: KPOINTS File, automatically generated   

Automatic generation of k-mesh.
Space group operators:
 irot       det(A)        alpha          n_x          n_y          n_z        tau_x        tau_y        tau_z
    1     1.000000     0.000001     1.000000     0.000000     0.000000     0.000000     0.000000     0.000000
 
 Subroutine IBZKPT returns following result:
 ===========================================
 
 Found     61 irreducible k-points:
 
 Following reciprocal coordinates:
            Coordinates               Weight
  0.000000  0.000000  0.000000      1.000000
  0.090909  0.000000  0.000000      2.000000
  0.181818  0.000000  0.000000      2.000000
  0.272727  0.000000  0.000000      2.000000
  0.363636  0.000000  0.000000      2.000000
  0.454545 -0.000000  0.000000      2.000000
  0.000000  0.090909  0.000000      2.000000
  0.090909  0.090909  0.000000      2.000000
  0.181818  0.090909  0.000000      2.000000
  0.272727  0.090909  0.000000      2.000000
  0.363636  0.090909  0.000000      2.000000
  0.454545  0.090909  0.000000      2.000000
 -0.454545  0.090909  0.000000      2.000000
 -0.363636  0.090909  0.000000      2.000000
 -0.272727  0.090909  0.000000      2.000000
 -0.181818  0.090909  0.000000      2.000000
 -0.090909  0.090909  0.000000      2.000000
  0.000000  0.181818  0.000000      2.000000
  0.090909  0.181818  0.000000      2.000000
  0.181818  0.181818  0.000000      2.000000
  0.272727  0.181818  0.000000      2.000000
  0.363636  0.181818  0.000000      2.000000
  0.454545  0.181818  0.000000      2.000000
 -0.454545  0.181818  0.000000      2.000000
 -0.363636  0.181818  0.000000      2.000000
 -0.272727  0.181818  0.000000      2.000000
 -0.181818  0.181818  0.000000      2.000000
 -0.090909  0.181818  0.000000      2.000000
  0.000000  0.272727  0.000000      2.000000
  0.090909  0.272727  0.000000      2.000000
  0.181818  0.272727  0.000000      2.000000
  0.272727  0.272727  0.000000      2.000000
  0.363636  0.272727  0.000000      2.000000
  0.454545  0.272727  0.000000      2.000000
 -0.454545  0.272727  0.000000      2.000000
 -0.363636  0.272727  0.000000      2.000000
 -0.272727  0.272727  0.000000      2.000000
 -0.181818  0.272727  0.000000      2.000000
 -0.090909  0.272727  0.000000      2.000000
  0.000000  0.363636  0.000000      2.000000
  0.090909  0.363636  0.000000      2.000000
  0.181818  0.363636  0.000000      2.000000
  0.272727  0.363636  0.000000      2.000000
  0.363636  0.363636  0.000000      2.000000
  0.454545  0.363636  0.000000      2.000000
 -0.454545  0.363636  0.000000      2.000000
 -0.363636  0.363636  0.000000      2.000000
 -0.272727  0.363636  0.000000      2.000000
 -0.181818  0.363636  0.000000      2.000000
 -0.090909  0.363636  0.000000      2.000000
  0.000000  0.454545  0.000000      2.000000
  0.090909  0.454545  0.000000      2.000000
  0.181818  0.454545  0.000000      2.000000
  0.272727  0.454545  0.000000      2.000000
  0.363636  0.454545  0.000000      2.000000
  0.454545  0.454545  0.000000      2.000000
 -0.454545  0.454545  0.000000      2.000000
 -0.363636  0.454545  0.000000      2.000000
 -0.272727  0.454545  0.000000      2.000000
 -0.181818  0.454545  0.000000      2.000000
 -0.090909  0.454545  0.000000      2.000000
 
 Following cartesian coordinates:
            Coordinates               Weight
  0.000000  0.000000  0.000000      1.000000
  0.028529  0.016471  0.000000      2.000000
  0.057059  0.032943  0.000000      2.000000
  0.085588  0.049414  0.000000      2.000000
  0.114118  0.065886  0.000000      2.000000
  0.142647  0.082357  0.000000      2.000000
  0.000000  0.032943  0.000000      2.000000
  0.028529  0.049414  0.000000      2.000000
  0.057059  0.065886  0.000000      2.000000
  0.085588  0.082357  0.000000      2.000000
  0.114118  0.098829  0.000000      2.000000
  0.142647  0.115300  0.000000      2.000000
 -0.142647 -0.049414  0.000000      2.000000
 -0.114118 -0.032943  0.000000      2.000000
 -0.085588 -0.016471  0.000000      2.000000
 -0.057059  0.000000  0.000000      2.000000
 -0.028529  0.016471  0.000000      2.000000
  0.000000  0.065886  0.000000      2.000000
  0.028529  0.082357  0.000000      2.000000
  0.057059  0.098829  0.000000      2.000000
  0.085588  0.115300  0.000000      2.000000
  0.114118  0.131772  0.000000      2.000000
  0.142647  0.148243  0.000000      2.000000
 -0.142647 -0.016471  0.000000      2.000000
 -0.114118  0.000000  0.000000      2.000000
 -0.085588  0.016471  0.000000      2.000000
 -0.057059  0.032943  0.000000      2.000000
 -0.028529  0.049414  0.000000      2.000000
  0.000000  0.098829  0.000000      2.000000
  0.028529  0.115300  0.000000      2.000000
  0.057059  0.131772  0.000000      2.000000
  0.085588  0.148243  0.000000      2.000000
  0.114118  0.164715  0.000000      2.000000
  0.142647  0.181186  0.000000      2.000000
 -0.142647  0.016471  0.000000      2.000000
 -0.114118  0.032943  0.000000      2.000000
 -0.085588  0.049414  0.000000      2.000000
 -0.057059  0.065886  0.000000      2.000000
 -0.028529  0.082357  0.000000      2.000000
  0.000000  0.131772  0.000000      2.000000
  0.028529  0.148243  0.000000      2.000000
  0.057059  0.164715  0.000000      2.000000
  0.085588  0.181186  0.000000      2.000000
  0.114118  0.197658  0.000000      2.000000
  0.142647  0.214129  0.000000      2.000000
 -0.142647  0.049414  0.000000      2.000000
 -0.114118  0.065886  0.000000      2.000000
 -0.085588  0.082357  0.000000      2.000000
 -0.057059  0.098829  0.000000      2.000000
 -0.028529  0.115300  0.000000      2.000000
  0.000000  0.164715  0.000000      2.000000
  0.028529  0.181186  0.000000      2.000000
  0.057059  0.197658  0.000000      2.000000
  0.085588  0.214129  0.000000      2.000000
  0.114118  0.230601  0.000000      2.000000
  0.142647  0.247072  0.000000      2.000000
 -0.142647  0.082357  0.000000      2.000000
 -0.114118  0.098829  0.000000      2.000000
 -0.085588  0.115300  0.000000      2.000000
 -0.057059  0.131772  0.000000      2.000000
 -0.028529  0.148243  0.000000      2.000000
 


--------------------------------------------------------------------------------------------------------




 Dimension of arrays:
   k-points           NKPTS =     61   k-points in BZ     NKDIM =     61   number of bands    NBANDS=     24
   number of dos      NEDOS =    301   number of ions     NIONS =      6
   non local maximal  LDIM  =      6   non local SUM 2l+1 LMDIM =     18
   total plane-waves  NPLWV =  25088
   max r-space proj   IRMAX =      1   max aug-charges    IRDMAX=   2499
   dimension x,y,z NGX =    16 NGY =   16 NGZ =   98
   dimension x,y,z NGXF=    20 NGYF=   20 NGZF=  126
   support grid    NGXF=    20 NGYF=   20 NGZF=  126
   ions per type =               4   1   1
   NGX,Y,Z   is equivalent  to a cutoff of   8.35,  8.35,  8.15 a.u.
   NGXF,Y,Z  is equivalent  to a cutoff of  10.43, 10.43, 10.47 a.u.

 SYSTEM =  VaspCalc                                
 POSCAR =  convert from MoS2WS2C7.car  14:23:52 03/

 Startparameter for this run:
   NWRITE =      1    write-flag & timer
   PREC   = med       normal or accurate (medium, high low for compatibility)
   ISTART =      0    job   : 0-new  1-cont  2-samecut
   ICHARG =      2    charge: 1-file 2-atom 10-const
   ISPIN  =      1    spin polarized calculation?
   LNONCOLLINEAR =      F non collinear calculations
   LSORBIT =      F    spin-orbit coupling
   INIWAV =      1    electr: 0-lowe 1-rand  2-diag
   LASPH  =      F    aspherical Exc in radial PAW
   METAGGA=      F    non-selfconsistent MetaGGA calc.

 Electronic Relaxation 1
   ENCUT  =  400.0 eV  29.40 Ry    5.42 a.u.   5.20  5.20 32.61*2*pi/ulx,y,z
   ENINI  =  400.0     initial cutoff
   ENAUG  =  373.4 eV  augmentation charge cutoff
   NELM   =    400;   NELMIN=  4; NELMDL=  0     # of ELM steps 
   EDIFF  = 0.1E-05   stopping-criterion for ELM
   LREAL  =      F    real-space projection
   NLSPLINE    = F    spline interpolate recip. space projectors
   LCOMPAT=      F    compatible to vasp.4.4
   GGA_COMPAT  = T    GGA compatible to vasp.4.4-vasp.4.6
   LMAXPAW     = -100 max onsite density
   LMAXMIX     =    2 max onsite mixed and CHGCAR
   VOSKOWN=      0    Vosko Wilk Nusair interpolation
   ROPT   =    0.00000   0.00000   0.00000
 Ionic relaxation
   EDIFFG = 0.1E-04   stopping-criterion for IOM
   NSW    =      0    number of steps for IOM
   NBLOCK =      1;   KBLOCK =      1    inner block; outer block 
   IBRION =     -1    ionic relax: 0-MD 1-quasi-New 2-CG
   NFREE  =      0    steps in history (QN), initial steepest desc. (CG)
   ISIF   =      2    stress and relaxation
   IWAVPR =     10    prediction:  0-non 1-charg 2-wave 3-comb
   ISYM   =      2    0-nonsym 1-usesym 2-fastsym
   LCORR  =      T    Harris-Foulkes like correction to forces

   POTIM  = 0.5000    time-step for ionic-motion
   TEIN   =    0.0    initial temperature
   TEBEG  =    0.0;   TEEND  =   0.0 temperature during run
   SMASS  =  -3.00    Nose mass-parameter (am)
   estimated Nose-frequenzy (Omega)   =  0.10E-29 period in steps =****** mass=  -0.232E-27a.u.
   SCALEE = 1.0000    scale energy and forces
   NPACO  =    256;   APACO  = 16.0  distance and # of slots for P.C.
   PSTRESS=    0.0 pullay stress

  Mass of Ions in am
   POMASS =  32.07 95.94183.85
  Ionic Valenz
   ZVAL   =   6.00  6.00  6.00
  Atomic Wigner-Seitz radii
   RWIGS  =  -1.00 -1.00 -1.00
  virtual crystal weights 
   VCA    =   1.00  1.00  1.00
   NELECT =      36.0000    total number of electrons
   NUPDOWN=      -1.0000    fix difference up-down

 DOS related values:
   EMIN   =  10.00;   EMAX   =-10.00  energy-range for DOS
   EFERMI =   0.00
   ISMEAR =     0;   SIGMA  =   0.10  broadening in eV -4-tet -1-fermi 0-gaus

 Electronic relaxation 2 (details)
   IALGO  =     68    algorithm
   LDIAG  =      T    sub-space diagonalisation (order eigenvalues)
   LSUBROT=      F    optimize rotation matrix (better conditioning)
   TURBO    =      0    0=normal 1=particle mesh
   IRESTART =      0    0=no restart 2=restart with 2 vectors
   NREBOOT  =      0    no. of reboots
   NMIN     =      0    reboot dimension
   EREF     =   0.00    reference energy to select bands
   IMIX   =      4    mixing-type and parameters
     AMIX     =   0.40;   BMIX     =  1.00
     AMIX_MAG =   1.60;   BMIX_MAG =  1.00
     AMIN     =   0.10
     WC   =   100.;   INIMIX=   1;  MIXPRE=   1;  MAXMIX= -45

 Intra band minimization:
   WEIMIN = 0.0000     energy-eigenvalue tresh-hold
   EBREAK =  0.10E-07  absolut break condition
   DEPER  =   0.30     relativ break condition  

   TIME   =   0.40     timestep for ELM

  volume/ion in A,a.u.               =      29.31       197.80
  Fermi-wavevector in a.u.,A,eV,Ry     =   0.964820  1.823245 12.665352  0.930877
  Thomas-Fermi vector in A             =   2.094484
 
 Write flags
   LWAVE        =      F    write WAVECAR
   LDOWNSAMPLE  =      F    k-point downsampling of WAVECAR
   LCHARG       =      T    write CHGCAR
   LVTOT        =      F    write LOCPOT, total local potential
   LVHAR        =      F    write LOCPOT, Hartree potential only
   LELF         =      F    write electronic localiz. function (ELF)
   LORBIT       =     11    0 simple, 1 ext, 2 COOP (PROOUT), +10 PAW based schemes


 Dipole corrections
   LMONO  =      F    monopole corrections only (constant potential shift)
   LDIPOL =      F    correct potential (dipole corrections)
   IDIPOL =      0    1-x, 2-y, 3-z, 4-all directions 
   EPSILON=  1.0000000 bulk dielectric constant

 Exchange correlation treatment:
   GGA     =    --    GGA type
   LEXCH   =     8    internal setting for exchange type
   VOSKOWN=      0    Vosko Wilk Nusair interpolation
   LHFCALC =     F    Hartree Fock is set to
   LHFONE  =     F    Hartree Fock one center treatment
   AEXX    =    0.0000 exact exchange contribution

 Linear response parameters
   LEPSILON=     F    determine dielectric tensor
   LRPA    =     F    only Hartree local field effects (RPA)
   LNABLA  =     F    use nabla operator in PAW spheres
   LVEL    =     F    velocity operator in full k-point grid
   LINTERFAST=   F  fast interpolation
   KINTER  =     0    interpolate to denser k-point grid
   CSHIFT  =0.1000    complex shift for real part using Kramers Kronig
   OMEGAMAX=  -1.0    maximum frequency
   DEG_THRESHOLD= 0.2000000E-02 threshold for treating states as degnerate
   RTIME   =   -0.100 relaxation time in fs
  (WPLASMAI=    0.000 imaginary part of plasma frequency in eV, 0.658/RTIME)
   DFIELD  = 0.0000000 0.0000000 0.0000000 field for delta impulse in time
 
 Orbital magnetization related:
   ORBITALMAG=     F  switch on orbital magnetization
   LCHIMAG   =     F  perturbation theory with respect to B field
   DQ        =  0.001000  dq finite difference perturbation B field
   LLRAUG    =     F  two centre corrections for induced B field



--------------------------------------------------------------------------------------------------------


 Static calculation
 charge density and potential will be updated during run
 non-spin polarized calculation
 RMM-DIIS sequential band-by-band and
  variant of blocked Davidson during initial phase
 perform sub-space diagonalisation
    before iterative eigenvector-optimisation
 modified Broyden-mixing scheme, WC =      100.0
 initial mixing is a Kerker type mixing with AMIX =  0.4000 and BMIX =      1.0000
 Hartree-type preconditioning will be used
 using additional bands            6
 reciprocal scheme for non local part
 use partial core corrections
 calculate Harris-corrections to forces 
   (improved forces if not selfconsistent)
 use gradient corrections 
 use of overlap-Matrix (Vanderbilt PP)
 Gauss-broadening in eV      SIGMA  =   0.10


--------------------------------------------------------------------------------------------------------


  energy-cutoff  :      400.00
  volume of cell :      175.87
      direct lattice vectors                 reciprocal lattice vectors
     3.186500000  0.000000000  0.000000000     0.313823945  0.181186339  0.000000000
    -1.593250000  2.759589949  0.000000000     0.000000000  0.362372678  0.000000000
     0.000000000  0.000000000 20.000000000     0.000000000  0.000000000  0.050000000

  length of vectors
     3.186500000  3.186500000 20.000000000     0.362372678  0.362372678  0.050000000


 
 k-points in units of 2pi/SCALE and weight: KPOINTS File, automatically generated   
   0.00000000  0.00000000  0.00000000       0.008
   0.02852945  0.01647149  0.00000000       0.017
   0.05705890  0.03294297  0.00000000       0.017
   0.08558835  0.04941446  0.00000000       0.017
   0.11411780  0.06588594  0.00000000       0.017
   0.14264725  0.08235743  0.00000000       0.017
   0.00000000  0.03294297  0.00000000       0.017
   0.02852945  0.04941446  0.00000000       0.017
   0.05705890  0.06588594  0.00000000       0.017
   0.08558835  0.08235743  0.00000000       0.017
   0.11411780  0.09882891  0.00000000       0.017
   0.14264725  0.11530040  0.00000000       0.017
  -0.14264725 -0.04941446  0.00000000       0.017
  -0.11411780 -0.03294297  0.00000000       0.017
  -0.08558835 -0.01647149  0.00000000       0.017
  -0.05705890  0.00000000  0.00000000       0.017
  -0.02852945  0.01647149  0.00000000       0.017
   0.00000000  0.06588594  0.00000000       0.017
   0.02852945  0.08235743  0.00000000       0.017
   0.05705890  0.09882891  0.00000000       0.017
   0.08558835  0.11530040  0.00000000       0.017
   0.11411780  0.13177188  0.00000000       0.017
   0.14264725  0.14824337  0.00000000       0.017
  -0.14264725 -0.01647149  0.00000000       0.017
  -0.11411780  0.00000000  0.00000000       0.017
  -0.08558835  0.01647149  0.00000000       0.017
  -0.05705890  0.03294297  0.00000000       0.017
  -0.02852945  0.04941446  0.00000000       0.017
   0.00000000  0.09882891  0.00000000       0.017
   0.02852945  0.11530040  0.00000000       0.017
   0.05705890  0.13177188  0.00000000       0.017
   0.08558835  0.14824337  0.00000000       0.017
   0.11411780  0.16471485  0.00000000       0.017
   0.14264725  0.18118634  0.00000000       0.017
  -0.14264725  0.01647149  0.00000000       0.017
  -0.11411780  0.03294297  0.00000000       0.017
  -0.08558835  0.04941446  0.00000000       0.017
  -0.05705890  0.06588594  0.00000000       0.017
  -0.02852945  0.08235743  0.00000000       0.017
   0.00000000  0.13177188  0.00000000       0.017
   0.02852945  0.14824337  0.00000000       0.017
   0.05705890  0.16471485  0.00000000       0.017
   0.08558835  0.18118634  0.00000000       0.017
   0.11411780  0.19765782  0.00000000       0.017
   0.14264725  0.21412931  0.00000000       0.017
  -0.14264725  0.04941446  0.00000000       0.017
  -0.11411780  0.06588594  0.00000000       0.017
  -0.08558835  0.08235743  0.00000000       0.017
  -0.05705890  0.09882891  0.00000000       0.017
  -0.02852945  0.11530040  0.00000000       0.017
   0.00000000  0.16471485  0.00000000       0.017
   0.02852945  0.18118634  0.00000000       0.017
   0.05705890  0.19765782  0.00000000       0.017
   0.08558835  0.21412931  0.00000000       0.017
   0.11411780  0.23060080  0.00000000       0.017
   0.14264725  0.24707228  0.00000000       0.017
  -0.14264725  0.08235743  0.00000000       0.017
  -0.11411780  0.09882891  0.00000000       0.017
  -0.08558835  0.11530040  0.00000000       0.017
  -0.05705890  0.13177188  0.00000000       0.017
  -0.02852945  0.14824337  0.00000000       0.017
 
 k-points in reciprocal lattice and weights: KPOINTS File, automatically generated   
   0.00000000  0.00000000  0.00000000       0.008
   0.09090909  0.00000000  0.00000000       0.017
   0.18181818  0.00000000  0.00000000       0.017
   0.27272727  0.00000000  0.00000000       0.017
   0.36363636  0.00000000  0.00000000       0.017
   0.45454545 -0.00000000  0.00000000       0.017
   0.00000000  0.09090909  0.00000000       0.017
   0.09090909  0.09090909  0.00000000       0.017
   0.18181818  0.09090909  0.00000000       0.017
   0.27272727  0.09090909  0.00000000       0.017
   0.36363636  0.09090909  0.00000000       0.017
   0.45454545  0.09090909  0.00000000       0.017
  -0.45454545  0.09090909  0.00000000       0.017
  -0.36363636  0.09090909  0.00000000       0.017
  -0.27272727  0.09090909  0.00000000       0.017
  -0.18181818  0.09090909  0.00000000       0.017
  -0.09090909  0.09090909  0.00000000       0.017
   0.00000000  0.18181818  0.00000000       0.017
   0.09090909  0.18181818  0.00000000       0.017
   0.18181818  0.18181818  0.00000000       0.017
   0.27272727  0.18181818  0.00000000       0.017
   0.36363636  0.18181818  0.00000000       0.017
   0.45454545  0.18181818  0.00000000       0.017
  -0.45454545  0.18181818  0.00000000       0.017
  -0.36363636  0.18181818  0.00000000       0.017
  -0.27272727  0.18181818  0.00000000       0.017
  -0.18181818  0.18181818  0.00000000       0.017
  -0.09090909  0.18181818  0.00000000       0.017
   0.00000000  0.27272727  0.00000000       0.017
   0.09090909  0.27272727  0.00000000       0.017
   0.18181818  0.27272727  0.00000000       0.017
   0.27272727  0.27272727  0.00000000       0.017
   0.36363636  0.27272727  0.00000000       0.017
   0.45454545  0.27272727  0.00000000       0.017
  -0.45454545  0.27272727  0.00000000       0.017
  -0.36363636  0.27272727  0.00000000       0.017
  -0.27272727  0.27272727  0.00000000       0.017
  -0.18181818  0.27272727  0.00000000       0.017
  -0.09090909  0.27272727  0.00000000       0.017
   0.00000000  0.36363636  0.00000000       0.017
   0.09090909  0.36363636  0.00000000       0.017
   0.18181818  0.36363636  0.00000000       0.017
   0.27272727  0.36363636  0.00000000       0.017
   0.36363636  0.36363636  0.00000000       0.017
   0.45454545  0.36363636  0.00000000       0.017
  -0.45454545  0.36363636  0.00000000       0.017
  -0.36363636  0.36363636  0.00000000       0.017
  -0.27272727  0.36363636  0.00000000       0.017
  -0.18181818  0.36363636  0.00000000       0.017
  -0.09090909  0.36363636  0.00000000       0.017
   0.00000000  0.45454545  0.00000000       0.017
   0.09090909  0.45454545  0.00000000       0.017
   0.18181818  0.45454545  0.00000000       0.017
   0.27272727  0.45454545  0.00000000       0.017
   0.36363636  0.45454545  0.00000000       0.017
   0.45454545  0.45454545  0.00000000       0.017
  -0.45454545  0.45454545  0.00000000       0.017
  -0.36363636  0.45454545  0.00000000       0.017
  -0.27272727  0.45454545  0.00000000       0.017
  -0.18181818  0.45454545  0.00000000       0.017
  -0.09090909  0.45454545  0.00000000       0.017
 
 position of ions in fractional coordinates (direct lattice) 
   0.65902527  0.34587942  0.69283634
   0.65905005  0.34586411  0.53651181
   0.99788073  0.00109173  0.38437599
   0.99783320  0.00099507  0.22844737
   0.66436778  0.33429416  0.30644433
   0.99243815  0.01248506  0.61460282
 
 position of ions in cartesian coordinates  (Angst):
   1.54891164  0.95448537 13.85672672
   1.54901497  0.95444313 10.73023619
   3.17800754  0.00301272  7.68751984
   3.17801010  0.00274598  4.56894746
   1.58439376  0.92251479  6.12888666
   3.14251235  0.03445365 12.29205645
 


--------------------------------------------------------------------------------------------------------


 k-point  1 :   0.0000 0.0000 0.0000  plane waves:    3185
 k-point  2 :   0.0909 0.0000 0.0000  plane waves:    3173
 k-point  3 :   0.1818 0.0000 0.0000  plane waves:    3175
 k-point  4 :   0.2727 0.0000 0.0000  plane waves:    3193
 k-point  5 :   0.3636 0.0000 0.0000  plane waves:    3209
 k-point  6 :   0.4545-0.0000 0.0000  plane waves:    3205
 k-point  7 :   0.0000 0.0909 0.0000  plane waves:    3173
 k-point  8 :   0.0909 0.0909 0.0000  plane waves:    3179
 k-point  9 :   0.1818 0.0909 0.0000  plane waves:    3189
 k-point 10 :   0.2727 0.0909 0.0000  plane waves:    3200
 k-point 11 :   0.3636 0.0909 0.0000  plane waves:    3209
 k-point 12 :   0.4545 0.0909 0.0000  plane waves:    3196
 k-point 13 :  -0.4545 0.0909 0.0000  plane waves:    3209
 k-point 14 :  -0.3636 0.0909 0.0000  plane waves:    3200
 k-point 15 :  -0.2727 0.0909 0.0000  plane waves:    3189
 k-point 16 :  -0.1818 0.0909 0.0000  plane waves:    3179
 k-point 17 :  -0.0909 0.0909 0.0000  plane waves:    3173
 k-point 18 :   0.0000 0.1818 0.0000  plane waves:    3175
 k-point 19 :   0.0909 0.1818 0.0000  plane waves:    3189
 k-point 20 :   0.1818 0.1818 0.0000  plane waves:    3199
 k-point 21 :   0.2727 0.1818 0.0000  plane waves:    3199
 k-point 22 :   0.3636 0.1818 0.0000  plane waves:    3201
 k-point 23 :   0.4545 0.1818 0.0000  plane waves:    3201
 k-point 24 :  -0.4545 0.1818 0.0000  plane waves:    3199
 k-point 25 :  -0.3636 0.1818 0.0000  plane waves:    3199
 k-point 26 :  -0.2727 0.1818 0.0000  plane waves:    3189
 k-point 27 :  -0.1818 0.1818 0.0000  plane waves:    3175
 k-point 28 :  -0.0909 0.1818 0.0000  plane waves:    3179
 k-point 29 :   0.0000 0.2727 0.0000  plane waves:    3193
 k-point 30 :   0.0909 0.2727 0.0000  plane waves:    3200
 k-point 31 :   0.1818 0.2727 0.0000  plane waves:    3199
 k-point 32 :   0.2727 0.2727 0.0000  plane waves:    3191
 k-point 33 :   0.3636 0.2727 0.0000  plane waves:    3183
 k-point 34 :   0.4545 0.2727 0.0000  plane waves:    3191
 k-point 35 :  -0.4545 0.2727 0.0000  plane waves:    3199
 k-point 36 :  -0.3636 0.2727 0.0000  plane waves:    3200
 k-point 37 :  -0.2727 0.2727 0.0000  plane waves:    3193
 k-point 38 :  -0.1818 0.2727 0.0000  plane waves:    3189
 k-point 39 :  -0.0909 0.2727 0.0000  plane waves:    3189
 k-point 40 :   0.0000 0.3636 0.0000  plane waves:    3209
 k-point 41 :   0.0909 0.3636 0.0000  plane waves:    3209
 k-point 42 :   0.1818 0.3636 0.0000  plane waves:    3201
 k-point 43 :   0.2727 0.3636 0.0000  plane waves:    3183
 k-point 44 :   0.3636 0.3636 0.0000  plane waves:    3183
 k-point 45 :   0.4545 0.3636 0.0000  plane waves:    3201
 k-point 46 :  -0.4545 0.3636 0.0000  plane waves:    3209
 k-point 47 :  -0.3636 0.3636 0.0000  plane waves:    3209
 k-point 48 :  -0.2727 0.3636 0.0000  plane waves:    3200
 k-point 49 :  -0.1818 0.3636 0.0000  plane waves:    3199
 k-point 50 :  -0.0909 0.3636 0.0000  plane waves:    3200
 k-point 51 :   0.0000 0.4545 0.0000  plane waves:    3205
 k-point 52 :   0.0909 0.4545 0.0000  plane waves:    3196
 k-point 53 :   0.1818 0.4545 0.0000  plane waves:    3201
 k-point 54 :   0.2727 0.4545 0.0000  plane waves:    3191
 k-point 55 :   0.3636 0.4545 0.0000  plane waves:    3201
 k-point 56 :   0.4545 0.4545 0.0000  plane waves:    3196
 k-point 57 :  -0.4545 0.4545 0.0000  plane waves:    3205
 k-point 58 :  -0.3636 0.4545 0.0000  plane waves:    3209
 k-point 59 :  -0.2727 0.4545 0.0000  plane waves:    3199
 k-point 60 :  -0.1818 0.4545 0.0000  plane waves:    3199
 k-point 61 :  -0.0909 0.4545 0.0000  plane waves:    3209

 maximum and minimum number of plane-waves per node :       558      512

 maximum number of plane-waves:      3209
 maximum index in each direction: 
   IXMAX=    5   IYMAX=    5   IZMAX=   32
   IXMIN=   -5   IYMIN=   -5   IZMIN=  -32


 parallel 3D FFT for wavefunctions:
    minimum data exchange during FFTs selected (reduces bandwidth)
 parallel 3D FFT for charge:
    minimum data exchange during FFTs selected (reduces bandwidth)


 total amount of memory used by VASP MPI-rank0    48165. kBytes
=======================================================================

   base      :      30000. kBytes
   nonl-proj :      14281. kBytes
   fftplans  :        238. kBytes
   grid      :        352. kBytes
   one-center:         15. kBytes
   wavefun   :       3279. kBytes
 
     INWAV:  cpu time    0.0000: real time    0.0000
 Broyden mixing: mesh for mixing (old mesh)
   NGX = 11   NGY = 11   NGZ = 65
  (NGX  = 20   NGY  = 20   NGZ  =126)
  gives a total of   7865 points

 initial charge density was supplied:
 charge density of overlapping atoms calculated
 number of electron      36.0000000 magnetization 
 keeping initial charge density in first step


--------------------------------------------------------------------------------------------------------


 Maximum index for augmentation-charges          172 (set IRDMAX)


--------------------------------------------------------------------------------------------------------


 First call to EWALD:  gamma=   0.316
 Maximum number of real-space cells 5x 5x 1
 Maximum number of reciprocal cells 2x 2x 9

    FEWALD:  cpu time    0.0014: real time    0.0014


--------------------------------------- Iteration      1(   1)  ---------------------------------------


    POTLOK:  cpu time    0.0041: real time    0.0055
    SETDIJ:  cpu time    0.0016: real time    0.0017
     EDDAV:  cpu time    0.3899: real time    0.3915
       DOS:  cpu time    0.0015: real time    0.0015
    --------------------------------------------
      LOOP:  cpu time    0.3972: real time    0.4001

 eigenvalue-minimisations  :  2928
 total energy-change (2. order) : 0.2067986E+03  (-0.1307985E+04)
 number of electron      36.0000000 magnetization 
 augmentation part       36.0000000 magnetization 

 Free energy of the ion-electron system (eV)
  ---------------------------------------------------
  alpha Z        PSCENC =        68.88242450
  Ewald energy   TEWEN  =      2358.05440295
  -Hartree energ DENC   =     -3919.05446712
  -exchange      EXHF   =         0.00000000
  -V(xc)+E(xc)   XCENC  =       -59.12757760
  PAW double counting   =       788.69199195     -645.62869777
  entropy T*S    EENTRO =        -0.01193575
  eigenvalues    EBANDS =        85.59566938
  atomic energy  EATOM  =      1529.39674839
  Solvation  Ediel_sol  =         0.00000000
  ---------------------------------------------------
  free energy    TOTEN  =       206.79855895 eV

  energy without entropy =      206.81049470  energy(sigma->0) =      206.80452682


--------------------------------------------------------------------------------------------------------




--------------------------------------- Iteration      1(   2)  ---------------------------------------


     EDDAV:  cpu time    0.4912: real time    0.4931
       DOS:  cpu time    0.0009: real time    0.0009
    --------------------------------------------
      LOOP:  cpu time    0.4920: real time    0.4940

 eigenvalue-minimisations  :  4152
 total energy-change (2. order) :-0.2355264E+03  (-0.2283663E+03)
 number of electron      36.0000000 magnetization 
 augmentation part       36.0000000 magnetization 

 Free energy of the ion-electron system (eV)
  ---------------------------------------------------
  alpha Z        PSCENC =        68.88242450
  Ewald energy   TEWEN  =      2358.05440295
  -Hartree energ DENC   =     -3919.05446712
  -exchange      EXHF   =         0.00000000
  -V(xc)+E(xc)   XCENC  =       -59.12757760
  PAW double counting   =       788.69199195     -645.62869777
  entropy T*S    EENTRO =        -0.00000000
  eigenvalues    EBANDS =      -149.94268721
  atomic energy  EATOM  =      1529.39674839
  Solvation  Ediel_sol  =         0.00000000
  ---------------------------------------------------
  free energy    TOTEN  =       -28.72786190 eV

  energy without entropy =      -28.72786190  energy(sigma->0) =      -28.72786190


--------------------------------------------------------------------------------------------------------




--------------------------------------- Iteration      1(   3)  ---------------------------------------


     EDDAV:  cpu time    0.4773: real time    0.4789
       DOS:  cpu time    0.0009: real time    0.0009
    --------------------------------------------
      LOOP:  cpu time    0.4782: real time    0.4798

 eigenvalue-minimisations  :  3904
 total energy-change (2. order) :-0.1923975E+02  (-0.1906023E+02)
 number of electron      36.0000000 magnetization 
 augmentation part       36.0000000 magnetization 

 Free energy of the ion-electron system (eV)
  ---------------------------------------------------
  alpha Z        PSCENC =        68.88242450
  Ewald energy   TEWEN  =      2358.05440295
  -Hartree energ DENC   =     -3919.05446712
  -exchange      EXHF   =         0.00000000
  -V(xc)+E(xc)   XCENC  =       -59.12757760
  PAW double counting   =       788.69199195     -645.62869777
  entropy T*S    EENTRO =        -0.00000000
  eigenvalues    EBANDS =      -169.18243677
  atomic energy  EATOM  =      1529.39674839
  Solvation  Ediel_sol  =         0.00000000
  ---------------------------------------------------
  free energy    TOTEN  =       -47.96761145 eV

  energy without entropy =      -47.96761145  energy(sigma->0) =      -47.96761145


--------------------------------------------------------------------------------------------------------




--------------------------------------- Iteration      1(   4)  ---------------------------------------


     EDDAV:  cpu time    0.4851: real time    0.4863
       DOS:  cpu time    0.0009: real time    0.0009
    --------------------------------------------
      LOOP:  cpu time    0.4860: real time    0.4872

 eigenvalue-minimisations  :  4104
 total energy-change (2. order) :-0.5467232E+00  (-0.5453612E+00)
 number of electron      36.0000000 magnetization 
 augmentation part       36.0000000 magnetization 

 Free energy of the ion-electron system (eV)
  ---------------------------------------------------
  alpha Z        PSCENC =        68.88242450
  Ewald energy   TEWEN  =      2358.05440295
  -Hartree energ DENC   =     -3919.05446712
  -exchange      EXHF   =         0.00000000
  -V(xc)+E(xc)   XCENC  =       -59.12757760
  PAW double counting   =       788.69199195     -645.62869777
  entropy T*S    EENTRO =        -0.00000000
  eigenvalues    EBANDS =      -169.72915998
  atomic energy  EATOM  =      1529.39674839
  Solvation  Ediel_sol  =         0.00000000
  ---------------------------------------------------
  free energy    TOTEN  =       -48.51433467 eV

  energy without entropy =      -48.51433467  energy(sigma->0) =      -48.51433467


--------------------------------------------------------------------------------------------------------




--------------------------------------- Iteration      1(   5)  ---------------------------------------


     EDDAV:  cpu time    0.4804: real time    0.4819
       DOS:  cpu time    0.0009: real time    0.0009
    CHARGE:  cpu time    0.0164: real time    0.0164
    MIXING:  cpu time    0.0004: real time    0.0005
    --------------------------------------------
      LOOP:  cpu time    0.4981: real time    0.4997

 eigenvalue-minimisations  :  4032
 total energy-change (2. order) :-0.1606764E-01  (-0.1605450E-01)
 number of electron      36.0000104 magnetization 
 augmentation part       -2.1699026 magnetization 

 Broyden mixing:
  rms(total) = 0.92529E+00    rms(broyden)= 0.92527E+00
  rms(prec ) = 0.10597E+01
  weight for this iteration     100.00

 Free energy of the ion-electron system (eV)
  ---------------------------------------------------
  alpha Z        PSCENC =        68.88242450
  Ewald energy   TEWEN  =      2358.05440295
  -Hartree energ DENC   =     -3919.05446712
  -exchange      EXHF   =         0.00000000
  -V(xc)+E(xc)   XCENC  =       -59.12757760
  PAW double counting   =       788.69199195     -645.62869777
  entropy T*S    EENTRO =        -0.00000000
  eigenvalues    EBANDS =      -169.74522762
  atomic energy  EATOM  =      1529.39674839
  Solvation  Ediel_sol  =         0.00000000
  ---------------------------------------------------
  free energy    TOTEN  =       -48.53040231 eV

  energy without entropy =      -48.53040231  energy(sigma->0) =      -48.53040231


--------------------------------------------------------------------------------------------------------




--------------------------------------- Iteration      1(   6)  ---------------------------------------


    POTLOK:  cpu time    0.0019: real time    0.0019
    SETDIJ:  cpu time    0.0014: real time    0.0014
    EDDIAG:  cpu time    0.1031: real time    0.1034
  RMM-DIIS:  cpu time    0.2090: real time    0.2095
    ORTHCH:  cpu time    0.0099: real time    0.0099
       DOS:  cpu time    0.0011: real time    0.0011
    CHARGE:  cpu time    0.0157: real time    0.0158
    MIXING:  cpu time    0.0003: real time    0.0003
    --------------------------------------------
      LOOP:  cpu time    0.3423: real time    0.3432

 eigenvalue-minimisations  :  3169
 total energy-change (2. order) : 0.2443039E+01  (-0.1429966E+01)
 number of electron      36.0000103 magnetization 
 augmentation part       -1.3784453 magnetization 

 Broyden mixing:
  rms(total) = 0.32317E+00    rms(broyden)= 0.32316E+00
  rms(prec ) = 0.39793E+00
  weight for this iteration     100.00

 eigenvalues of (default mixing * dielectric matrix)
  average eigenvalue GAMMA=   0.9395
  0.9395

 Free energy of the ion-electron system (eV)
  ---------------------------------------------------
  alpha Z        PSCENC =        68.88242450
  Ewald energy   TEWEN  =      2358.05440295
  -Hartree energ DENC   =     -3918.40874065
  -exchange      EXHF   =         0.00000000
  -V(xc)+E(xc)   XCENC  =       -57.40001534
  PAW double counting   =       829.40328123     -688.20321019
  entropy T*S    EENTRO =        -0.00000405
  eigenvalues    EBANDS =      -167.81224983
  atomic energy  EATOM  =      1529.39674839
  Solvation  Ediel_sol  =         0.00000000
  ---------------------------------------------------
  free energy    TOTEN  =       -46.08736298 eV

  energy without entropy =      -46.08735893  energy(sigma->0) =      -46.08736096


--------------------------------------------------------------------------------------------------------




--------------------------------------- Iteration      1(   7)  ---------------------------------------


    POTLOK:  cpu time    0.0017: real time    0.0017
    SETDIJ:  cpu time    0.0012: real time    0.0012
    EDDIAG:  cpu time    0.1029: real time    0.1031
  RMM-DIIS:  cpu time    0.2153: real time    0.2161
    ORTHCH:  cpu time    0.0099: real time    0.0099
       DOS:  cpu time    0.0009: real time    0.0009
    CHARGE:  cpu time    0.0157: real time    0.0158
    MIXING:  cpu time    0.0002: real time    0.0002
    --------------------------------------------
      LOOP:  cpu time    0.3479: real time    0.3490

 eigenvalue-minimisations  :  3190
 total energy-change (2. order) : 0.5136243E+00  (-0.1311479E+00)
 number of electron      36.0000100 magnetization 
 augmentation part       -1.5597207 magnetization 

 Broyden mixing:
  rms(total) = 0.19070E+00    rms(broyden)= 0.19070E+00
  rms(prec ) = 0.21053E+00
  weight for this iteration     100.00

 eigenvalues of (default mixing * dielectric matrix)
  average eigenvalue GAMMA=   1.1866
  0.7315  1.6418

 Free energy of the ion-electron system (eV)
  ---------------------------------------------------
  alpha Z        PSCENC =        68.88242450
  Ewald energy   TEWEN  =      2358.05440295
  -Hartree energ DENC   =     -3924.51425253
  -exchange      EXHF   =         0.00000000
  -V(xc)+E(xc)   XCENC  =       -57.42104277
  PAW double counting   =       865.76683488     -725.10002642
  entropy T*S    EENTRO =        -0.00000000
  eigenvalues    EBANDS =      -160.63882769
  atomic energy  EATOM  =      1529.39674839
  Solvation  Ediel_sol  =         0.00000000
  ---------------------------------------------------
  free energy    TOTEN  =       -45.57373869 eV

  energy without entropy =      -45.57373869  energy(sigma->0) =      -45.57373869


--------------------------------------------------------------------------------------------------------




--------------------------------------- Iteration      1(   8)  ---------------------------------------


    POTLOK:  cpu time    0.0017: real time    0.0017
    SETDIJ:  cpu time    0.0013: real time    0.0013
    EDDIAG:  cpu time    0.1023: real time    0.1026
  RMM-DIIS:  cpu time    0.2227: real time    0.2234
    ORTHCH:  cpu time    0.0099: real time    0.0099
       DOS:  cpu time    0.0009: real time    0.0009
    CHARGE:  cpu time    0.0157: real time    0.0158
    MIXING:  cpu time    0.0002: real time    0.0002
    --------------------------------------------
      LOOP:  cpu time    0.3547: real time    0.3557

 eigenvalue-minimisations  :  3312
 total energy-change (2. order) : 0.8959471E-01  (-0.4084153E-01)
 number of electron      36.0000100 magnetization 
 augmentation part       -1.5337752 magnetization 

 Broyden mixing:
  rms(total) = 0.76526E-01    rms(broyden)= 0.76525E-01
  rms(prec ) = 0.83711E-01
  weight for this iteration     100.00

 eigenvalues of (default mixing * dielectric matrix)
  average eigenvalue GAMMA=   1.2541
  2.1580  0.8553  0.7490

 Free energy of the ion-electron system (eV)
  ---------------------------------------------------
  alpha Z        PSCENC =        68.88242450
  Ewald energy   TEWEN  =      2358.05440295
  -Hartree energ DENC   =     -3928.15399172
  -exchange      EXHF   =         0.00000000
  -V(xc)+E(xc)   XCENC  =       -57.08542973
  PAW double counting   =       903.02596310     -763.02636784
  entropy T*S    EENTRO =        -0.00000000
  eigenvalues    EBANDS =      -156.57789363
  atomic energy  EATOM  =      1529.39674839
  Solvation  Ediel_sol  =         0.00000000
  ---------------------------------------------------
  free energy    TOTEN  =       -45.48414398 eV

  energy without entropy =      -45.48414398  energy(sigma->0) =      -45.48414398


--------------------------------------------------------------------------------------------------------




--------------------------------------- Iteration      1(   9)  ---------------------------------------


    POTLOK:  cpu time    0.0017: real time    0.0017
    SETDIJ:  cpu time    0.0012: real time    0.0013
    EDDIAG:  cpu time    0.1028: real time    0.1030
  RMM-DIIS:  cpu time    0.2454: real time    0.2460
    ORTHCH:  cpu time    0.0110: real time    0.0110
       DOS:  cpu time    0.0009: real time    0.0009
    CHARGE:  cpu time    0.0158: real time    0.0158
    MIXING:  cpu time    0.0002: real time    0.0002
    --------------------------------------------
      LOOP:  cpu time    0.3791: real time    0.3800

 eigenvalue-minimisations  :  3712
 total energy-change (2. order) : 0.1027408E-01  (-0.5357830E-02)
 number of electron      36.0000100 magnetization 
 augmentation part       -1.5166127 magnetization 

 Broyden mixing:
  rms(total) = 0.30560E-01    rms(broyden)= 0.30559E-01
  rms(prec ) = 0.34204E-01
  weight for this iteration     100.00

 eigenvalues of (default mixing * dielectric matrix)
  average eigenvalue GAMMA=   1.4199
  2.1606  1.9546  0.7822  0.7822

 Free energy of the ion-electron system (eV)
  ---------------------------------------------------
  alpha Z        PSCENC =        68.88242450
  Ewald energy   TEWEN  =      2358.05440295
  -Hartree energ DENC   =     -3929.83641516
  -exchange      EXHF   =         0.00000000
  -V(xc)+E(xc)   XCENC  =       -56.90117825
  PAW double counting   =       921.80329715     -782.11722524
  entropy T*S    EENTRO =        -0.00000000
  eigenvalues    EBANDS =      -154.75592424
  atomic energy  EATOM  =      1529.39674839
  Solvation  Ediel_sol  =         0.00000000
  ---------------------------------------------------
  free energy    TOTEN  =       -45.47386990 eV

  energy without entropy =      -45.47386990  energy(sigma->0) =      -45.47386990


--------------------------------------------------------------------------------------------------------




--------------------------------------- Iteration      1(  10)  ---------------------------------------


    POTLOK:  cpu time    0.0018: real time    0.0018
    SETDIJ:  cpu time    0.0013: real time    0.0013
    EDDIAG:  cpu time    0.1078: real time    0.1080
  RMM-DIIS:  cpu time    0.2391: real time    0.2398
    ORTHCH:  cpu time    0.0099: real time    0.0100
       DOS:  cpu time    0.0009: real time    0.0009
    CHARGE:  cpu time    0.0158: real time    0.0159
    MIXING:  cpu time    0.0003: real time    0.0003
    --------------------------------------------
      LOOP:  cpu time    0.3768: real time    0.3779

 eigenvalue-minimisations  :  3604
 total energy-change (2. order) : 0.2442342E-02  (-0.1910472E-02)
 number of electron      36.0000100 magnetization 
 augmentation part       -1.5090656 magnetization 

 Broyden mixing:
  rms(total) = 0.10181E-01    rms(broyden)= 0.10181E-01
  rms(prec ) = 0.14523E-01
  weight for this iteration     100.00

 eigenvalues of (default mixing * dielectric matrix)
  average eigenvalue GAMMA=   1.3905
  2.4190  0.7555  0.8924  1.4427  1.4427

 Free energy of the ion-electron system (eV)
  ---------------------------------------------------
  alpha Z        PSCENC =        68.88242450
  Ewald energy   TEWEN  =      2358.05440295
  -Hartree energ DENC   =     -3930.86890012
  -exchange      EXHF   =         0.00000000
  -V(xc)+E(xc)   XCENC  =       -56.83663509
  PAW double counting   =       929.63145052     -790.03680854
  entropy T*S    EENTRO =        -0.00000000
  eigenvalues    EBANDS =      -153.69411017
  atomic energy  EATOM  =      1529.39674839
  Solvation  Ediel_sol  =         0.00000000
  ---------------------------------------------------
  free energy    TOTEN  =       -45.47142756 eV

  energy without entropy =      -45.47142756  energy(sigma->0) =      -45.47142756


--------------------------------------------------------------------------------------------------------




--------------------------------------- Iteration      1(  11)  ---------------------------------------


    POTLOK:  cpu time    0.0017: real time    0.0017
    SETDIJ:  cpu time    0.0013: real time    0.0013
    EDDIAG:  cpu time    0.1037: real time    0.1040
  RMM-DIIS:  cpu time    0.2486: real time    0.2492
    ORTHCH:  cpu time    0.0099: real time    0.0099
       DOS:  cpu time    0.0009: real time    0.0009
    CHARGE:  cpu time    0.0158: real time    0.0158
    MIXING:  cpu time    0.0002: real time    0.0002
    --------------------------------------------
      LOOP:  cpu time    0.3821: real time    0.3830

 eigenvalue-minimisations  :  3723
 total energy-change (2. order) : 0.8442413E-03  (-0.3177605E-03)
 number of electron      36.0000101 magnetization 
 augmentation part       -1.5156157 magnetization 

 Broyden mixing:
  rms(total) = 0.39741E-02    rms(broyden)= 0.39739E-02
  rms(prec ) = 0.62799E-02
  weight for this iteration     100.00

 eigenvalues of (default mixing * dielectric matrix)
  average eigenvalue GAMMA=   1.4295
  2.3620  1.8246  1.8246  0.7459  0.9100  0.9100

 Free energy of the ion-electron system (eV)
  ---------------------------------------------------
  alpha Z        PSCENC =        68.88242450
  Ewald energy   TEWEN  =      2358.05440295
  -Hartree energ DENC   =     -3931.60274480
  -exchange      EXHF   =         0.00000000
  -V(xc)+E(xc)   XCENC  =       -56.83391136
  PAW double counting   =       931.22730882     -791.64101101
  entropy T*S    EENTRO =        -0.00000000
  eigenvalues    EBANDS =      -152.95380082
  atomic energy  EATOM  =      1529.39674839
  Solvation  Ediel_sol  =         0.00000000
  ---------------------------------------------------
  free energy    TOTEN  =       -45.47058332 eV

  energy without entropy =      -45.47058332  energy(sigma->0) =      -45.47058332


--------------------------------------------------------------------------------------------------------




--------------------------------------- Iteration      1(  12)  ---------------------------------------


    POTLOK:  cpu time    0.0017: real time    0.0017
    SETDIJ:  cpu time    0.0012: real time    0.0012
    EDDIAG:  cpu time    0.1031: real time    0.1033
  RMM-DIIS:  cpu time    0.2487: real time    0.2492
    ORTHCH:  cpu time    0.0099: real time    0.0099
       DOS:  cpu time    0.0009: real time    0.0011
    CHARGE:  cpu time    0.0157: real time    0.0157
    MIXING:  cpu time    0.0003: real time    0.0003
    --------------------------------------------
      LOOP:  cpu time    0.3813: real time    0.3825

 eigenvalue-minimisations  :  3737
 total energy-change (2. order) : 0.1507343E-03  (-0.7056543E-04)
 number of electron      36.0000101 magnetization 
 augmentation part       -1.5158214 magnetization 

 Broyden mixing:
  rms(total) = 0.24519E-02    rms(broyden)= 0.24519E-02
  rms(prec ) = 0.41450E-02
  weight for this iteration     100.00

 eigenvalues of (default mixing * dielectric matrix)
  average eigenvalue GAMMA=   1.4932
  2.7349  2.4328  1.3476  1.3476  0.7528  0.9184  0.9184

 Free energy of the ion-electron system (eV)
  ---------------------------------------------------
  alpha Z        PSCENC =        68.88242450
  Ewald energy   TEWEN  =      2358.05440295
  -Hartree energ DENC   =     -3932.43687989
  -exchange      EXHF   =         0.00000000
  -V(xc)+E(xc)   XCENC  =       -56.82220588
  PAW double counting   =       931.37659936     -791.78552622
  entropy T*S    EENTRO =        -0.00000000
  eigenvalues    EBANDS =      -152.13599581
  atomic energy  EATOM  =      1529.39674839
  Solvation  Ediel_sol  =         0.00000000
  ---------------------------------------------------
  free energy    TOTEN  =       -45.47043258 eV

  energy without entropy =      -45.47043258  energy(sigma->0) =      -45.47043258


--------------------------------------------------------------------------------------------------------




--------------------------------------- Iteration      1(  13)  ---------------------------------------


    POTLOK:  cpu time    0.0017: real time    0.0017
    SETDIJ:  cpu time    0.0012: real time    0.0012
    EDDIAG:  cpu time    0.1032: real time    0.1035
  RMM-DIIS:  cpu time    0.2455: real time    0.2461
    ORTHCH:  cpu time    0.0099: real time    0.0099
       DOS:  cpu time    0.0009: real time    0.0009
    CHARGE:  cpu time    0.0157: real time    0.0158
    MIXING:  cpu time    0.0003: real time    0.0003
    --------------------------------------------
      LOOP:  cpu time    0.3784: real time    0.3793

 eigenvalue-minimisations  :  3681
 total energy-change (2. order) : 0.2709716E-04  (-0.3127383E-04)
 number of electron      36.0000101 magnetization 
 augmentation part       -1.5132047 magnetization 

 Broyden mixing:
  rms(total) = 0.18800E-02    rms(broyden)= 0.18800E-02
  rms(prec ) = 0.30367E-02
  weight for this iteration     100.00

 eigenvalues of (default mixing * dielectric matrix)
  average eigenvalue GAMMA=   1.6221
  3.1271  2.2864  2.2864  1.6485  0.7590  0.8834  0.9929  0.9929

 Free energy of the ion-electron system (eV)
  ---------------------------------------------------
  alpha Z        PSCENC =        68.88242450
  Ewald energy   TEWEN  =      2358.05440295
  -Hartree energ DENC   =     -3933.00383069
  -exchange      EXHF   =         0.00000000
  -V(xc)+E(xc)   XCENC  =       -56.81275242
  PAW double counting   =       931.33388262     -791.73910586
  entropy T*S    EENTRO =        -0.00000000
  eigenvalues    EBANDS =      -151.58217497
  atomic energy  EATOM  =      1529.39674839
  Solvation  Ediel_sol  =         0.00000000
  ---------------------------------------------------
  free energy    TOTEN  =       -45.47040549 eV

  energy without entropy =      -45.47040549  energy(sigma->0) =      -45.47040549


--------------------------------------------------------------------------------------------------------




--------------------------------------- Iteration      1(  14)  ---------------------------------------


    POTLOK:  cpu time    0.0017: real time    0.0017
    SETDIJ:  cpu time    0.0013: real time    0.0013
    EDDIAG:  cpu time    0.1024: real time    0.1027
  RMM-DIIS:  cpu time    0.2464: real time    0.2470
    ORTHCH:  cpu time    0.0099: real time    0.0099
       DOS:  cpu time    0.0009: real time    0.0009
    CHARGE:  cpu time    0.0157: real time    0.0158
    MIXING:  cpu time    0.0003: real time    0.0003
    --------------------------------------------
      LOOP:  cpu time    0.3786: real time    0.3795

 eigenvalue-minimisations  :  3674
 total energy-change (2. order) :-0.1631944E-03  (-0.2369436E-04)
 number of electron      36.0000101 magnetization 
 augmentation part       -1.5154286 magnetization 

 Broyden mixing:
  rms(total) = 0.17799E-02    rms(broyden)= 0.17798E-02
  rms(prec ) = 0.23154E-02
  weight for this iteration     100.00

 eigenvalues of (default mixing * dielectric matrix)
  average eigenvalue GAMMA=   1.7395
  4.3378  2.5018  2.5018  1.3937  1.3937  0.9630  0.9630  0.7624  0.8384

 Free energy of the ion-electron system (eV)
  ---------------------------------------------------
  alpha Z        PSCENC =        68.88242450
  Ewald energy   TEWEN  =      2358.05440295
  -Hartree energ DENC   =     -3933.59635292
  -exchange      EXHF   =         0.00000000
  -V(xc)+E(xc)   XCENC  =       -56.81358652
  PAW double counting   =       931.17056211     -791.57388241
  entropy T*S    EENTRO =        -0.00000000
  eigenvalues    EBANDS =      -150.99088478
  atomic energy  EATOM  =      1529.39674839
  Solvation  Ediel_sol  =         0.00000000
  ---------------------------------------------------
  free energy    TOTEN  =       -45.47056868 eV

  energy without entropy =      -45.47056868  energy(sigma->0) =      -45.47056868


--------------------------------------------------------------------------------------------------------




--------------------------------------- Iteration      1(  15)  ---------------------------------------


    POTLOK:  cpu time    0.0017: real time    0.0017
    SETDIJ:  cpu time    0.0012: real time    0.0012
    EDDIAG:  cpu time    0.1028: real time    0.1030
  RMM-DIIS:  cpu time    0.2442: real time    0.2450
    ORTHCH:  cpu time    0.0099: real time    0.0099
       DOS:  cpu time    0.0009: real time    0.0009
    CHARGE:  cpu time    0.0157: real time    0.0158
    MIXING:  cpu time    0.0003: real time    0.0003
    --------------------------------------------
      LOOP:  cpu time    0.3768: real time    0.3779

 eigenvalue-minimisations  :  3659
 total energy-change (2. order) :-0.1102858E-03  (-0.1089456E-04)
 number of electron      36.0000101 magnetization 
 augmentation part       -1.5141664 magnetization 

 Broyden mixing:
  rms(total) = 0.84711E-03    rms(broyden)= 0.84709E-03
  rms(prec ) = 0.10933E-02
  weight for this iteration     100.00

 eigenvalues of (default mixing * dielectric matrix)
  average eigenvalue GAMMA=   2.0020
  6.5643  2.9322  2.1731  2.1731  1.6169  0.9448  0.9448  0.7629  0.8254  1.0827

 Free energy of the ion-electron system (eV)
  ---------------------------------------------------
  alpha Z        PSCENC =        68.88242450
  Ewald energy   TEWEN  =      2358.05440295
  -Hartree energ DENC   =     -3933.85016293
  -exchange      EXHF   =         0.00000000
  -V(xc)+E(xc)   XCENC  =       -56.81010532
  PAW double counting   =       930.95119461     -791.35498778
  entropy T*S    EENTRO =        -0.00000000
  eigenvalues    EBANDS =      -150.74019339
  atomic energy  EATOM  =      1529.39674839
  Solvation  Ediel_sol  =         0.00000000
  ---------------------------------------------------
  free energy    TOTEN  =       -45.47067897 eV

  energy without entropy =      -45.47067897  energy(sigma->0) =      -45.47067897


--------------------------------------------------------------------------------------------------------




--------------------------------------- Iteration      1(  16)  ---------------------------------------


    POTLOK:  cpu time    0.0017: real time    0.0017
    SETDIJ:  cpu time    0.0012: real time    0.0013
    EDDIAG:  cpu time    0.1026: real time    0.1028
  RMM-DIIS:  cpu time    0.2399: real time    0.2406
    ORTHCH:  cpu time    0.0099: real time    0.0099
       DOS:  cpu time    0.0009: real time    0.0009
    CHARGE:  cpu time    0.0157: real time    0.0157
    MIXING:  cpu time    0.0004: real time    0.0004
    --------------------------------------------
      LOOP:  cpu time    0.3723: real time    0.3734

 eigenvalue-minimisations  :  3479
 total energy-change (2. order) :-0.9572093E-04  (-0.1547853E-05)
 number of electron      36.0000101 magnetization 
 augmentation part       -1.5140458 magnetization 

 Broyden mixing:
  rms(total) = 0.48454E-03    rms(broyden)= 0.48453E-03
  rms(prec ) = 0.55842E-03
  weight for this iteration     100.00

 eigenvalues of (default mixing * dielectric matrix)
  average eigenvalue GAMMA=   2.0417
  7.3492  3.0674  2.5644  2.2417  1.3937  1.3937  0.9523  0.9523  0.7609  0.8401
  0.9436

 Free energy of the ion-electron system (eV)
  ---------------------------------------------------
  alpha Z        PSCENC =        68.88242450
  Ewald energy   TEWEN  =      2358.05440295
  -Hartree energ DENC   =     -3933.96034805
  -exchange      EXHF   =         0.00000000
  -V(xc)+E(xc)   XCENC  =       -56.81060289
  PAW double counting   =       930.99229477     -791.39606276
  entropy T*S    EENTRO =        -0.00000000
  eigenvalues    EBANDS =      -150.62963160
  atomic energy  EATOM  =      1529.39674839
  Solvation  Ediel_sol  =         0.00000000
  ---------------------------------------------------
  free energy    TOTEN  =       -45.47077469 eV

  energy without entropy =      -45.47077469  energy(sigma->0) =      -45.47077469


--------------------------------------------------------------------------------------------------------




--------------------------------------- Iteration      1(  17)  ---------------------------------------


    POTLOK:  cpu time    0.0017: real time    0.0017
    SETDIJ:  cpu time    0.0012: real time    0.0012
    EDDIAG:  cpu time    0.1024: real time    0.1026
  RMM-DIIS:  cpu time    0.2374: real time    0.2380
    ORTHCH:  cpu time    0.0099: real time    0.0099
       DOS:  cpu time    0.0009: real time    0.0009
    CHARGE:  cpu time    0.0158: real time    0.0158
    MIXING:  cpu time    0.0004: real time    0.0004
    --------------------------------------------
      LOOP:  cpu time    0.3697: real time    0.3706

 eigenvalue-minimisations  :  3601
 total energy-change (2. order) :-0.3014796E-04  (-0.1147289E-05)
 number of electron      36.0000101 magnetization 
 augmentation part       -1.5145568 magnetization 

 Broyden mixing:
  rms(total) = 0.34606E-03    rms(broyden)= 0.34605E-03
  rms(prec ) = 0.40932E-03
  weight for this iteration     100.00

 eigenvalues of (default mixing * dielectric matrix)
  average eigenvalue GAMMA=   2.1316
  7.9650  3.6063  2.6834  2.1366  2.1366  1.3734  1.2564  0.9437  0.9437  0.7606
  0.8518  0.9215

 Free energy of the ion-electron system (eV)
  ---------------------------------------------------
  alpha Z        PSCENC =        68.88242450
  Ewald energy   TEWEN  =      2358.05440295
  -Hartree energ DENC   =     -3933.95801832
  -exchange      EXHF   =         0.00000000
  -V(xc)+E(xc)   XCENC  =       -56.81150695
  PAW double counting   =       931.09448455     -791.49918424
  entropy T*S    EENTRO =        -0.00000000
  eigenvalues    EBANDS =      -150.63015572
  atomic energy  EATOM  =      1529.39674839
  Solvation  Ediel_sol  =         0.00000000
  ---------------------------------------------------
  free energy    TOTEN  =       -45.47080484 eV

  energy without entropy =      -45.47080484  energy(sigma->0) =      -45.47080484


--------------------------------------------------------------------------------------------------------




--------------------------------------- Iteration      1(  18)  ---------------------------------------


    POTLOK:  cpu time    0.0017: real time    0.0017
    SETDIJ:  cpu time    0.0012: real time    0.0012
    EDDIAG:  cpu time    0.1027: real time    0.1032
  RMM-DIIS:  cpu time    0.1866: real time    0.1870
    ORTHCH:  cpu time    0.0099: real time    0.0099
       DOS:  cpu time    0.0009: real time    0.0009
    CHARGE:  cpu time    0.0157: real time    0.0157
    MIXING:  cpu time    0.0004: real time    0.0004
    --------------------------------------------
      LOOP:  cpu time    0.3192: real time    0.3202

 eigenvalue-minimisations  :  2501
 total energy-change (2. order) :-0.1063873E-04  (-0.1698600E-06)
 number of electron      36.0000101 magnetization 
 augmentation part       -1.5143773 magnetization 

 Broyden mixing:
  rms(total) = 0.88225E-04    rms(broyden)= 0.88223E-04
  rms(prec ) = 0.98152E-04
  weight for this iteration     100.00

 eigenvalues of (default mixing * dielectric matrix)
  average eigenvalue GAMMA=   2.0940
  8.0458  3.8958  2.7036  2.3450  2.0811  1.4295  0.7608  0.8437  1.0768  1.0768
  1.0502  0.9568  0.9568

 Free energy of the ion-electron system (eV)
  ---------------------------------------------------
  alpha Z        PSCENC =        68.88242450
  Ewald energy   TEWEN  =      2358.05440295
  -Hartree energ DENC   =     -3933.95377811
  -exchange      EXHF   =         0.00000000
  -V(xc)+E(xc)   XCENC  =       -56.81116711
  PAW double counting   =       931.07488739     -791.47950235
  entropy T*S    EENTRO =        -0.00000000
  eigenvalues    EBANDS =      -150.63483113
  atomic energy  EATOM  =      1529.39674839
  Solvation  Ediel_sol  =         0.00000000
  ---------------------------------------------------
  free energy    TOTEN  =       -45.47081547 eV

  energy without entropy =      -45.47081547  energy(sigma->0) =      -45.47081547


--------------------------------------------------------------------------------------------------------




--------------------------------------- Iteration      1(  19)  ---------------------------------------


    POTLOK:  cpu time    0.0017: real time    0.0017
    SETDIJ:  cpu time    0.0012: real time    0.0013
    EDDIAG:  cpu time    0.1059: real time    0.1061
  RMM-DIIS:  cpu time    0.1703: real time    0.1707
    ORTHCH:  cpu time    0.0099: real time    0.0099
       DOS:  cpu time    0.0009: real time    0.0009
    CHARGE:  cpu time    0.0157: real time    0.0157
    MIXING:  cpu time    0.0005: real time    0.0005
    --------------------------------------------
      LOOP:  cpu time    0.3061: real time    0.3068

 eigenvalue-minimisations  :  2197
 total energy-change (2. order) :-0.1847216E-05  (-0.4571142E-07)
 number of electron      36.0000101 magnetization 
 augmentation part       -1.5143765 magnetization 

 Broyden mixing:
  rms(total) = 0.30228E-04    rms(broyden)= 0.30227E-04
  rms(prec ) = 0.35195E-04
  weight for this iteration     100.00

 eigenvalues of (default mixing * dielectric matrix)
  average eigenvalue GAMMA=   2.0759
  8.0659  4.0647  2.7955  2.2851  1.9765  1.8554  1.2984  1.2984  0.9495  0.9495
  0.7606  1.0138  0.8489  0.9010

 Free energy of the ion-electron system (eV)
  ---------------------------------------------------
  alpha Z        PSCENC =        68.88242450
  Ewald energy   TEWEN  =      2358.05440295
  -Hartree energ DENC   =     -3933.95578241
  -exchange      EXHF   =         0.00000000
  -V(xc)+E(xc)   XCENC  =       -56.81121574
  PAW double counting   =       931.06641619     -791.47074456
  entropy T*S    EENTRO =        -0.00000000
  eigenvalues    EBANDS =      -150.63306664
  atomic energy  EATOM  =      1529.39674839
  Solvation  Ediel_sol  =         0.00000000
  ---------------------------------------------------
  free energy    TOTEN  =       -45.47081732 eV

  energy without entropy =      -45.47081732  energy(sigma->0) =      -45.47081732


--------------------------------------------------------------------------------------------------------




--------------------------------------- Iteration      1(  20)  ---------------------------------------


    POTLOK:  cpu time    0.0018: real time    0.0018
    SETDIJ:  cpu time    0.0013: real time    0.0013
    EDDIAG:  cpu time    0.1026: real time    0.1029
  RMM-DIIS:  cpu time    0.1523: real time    0.1527
    ORTHCH:  cpu time    0.0099: real time    0.0099
       DOS:  cpu time    0.0009: real time    0.0009
    --------------------------------------------
      LOOP:  cpu time    0.2688: real time    0.2695

 eigenvalue-minimisations  :  1515
 total energy-change (2. order) :-0.3233249E-06  (-0.1233242E-07)
 number of electron      36.0000101 magnetization 
 augmentation part       -1.5143765 magnetization 

 Free energy of the ion-electron system (eV)
  ---------------------------------------------------
  alpha Z        PSCENC =        68.88242450
  Ewald energy   TEWEN  =      2358.05440295
  -Hartree energ DENC   =     -3933.95577255
  -exchange      EXHF   =         0.00000000
  -V(xc)+E(xc)   XCENC  =       -56.81119375
  PAW double counting   =       931.06653528     -791.47087827
  entropy T*S    EENTRO =        -0.00000000
  eigenvalues    EBANDS =      -150.63308419
  atomic energy  EATOM  =      1529.39674839
  Solvation  Ediel_sol  =         0.00000000
  ---------------------------------------------------
  free energy    TOTEN  =       -45.47081765 eV

  energy without entropy =      -45.47081765  energy(sigma->0) =      -45.47081765


--------------------------------------------------------------------------------------------------------




 average (electrostatic) potential at core
  the test charge radii are     0.9698  1.2296  1.1823
  (the norm of the test charge is              1.0000)
       1 -90.3386       2 -90.3556       3 -90.3748       4 -90.3610       5 -42.5046
       6 -44.6243
 
 
 
 E-fermi :   1.9630     XC(G=0):  -7.0741     alpha+bet : -7.2385


 k-point     1 :       0.0000    0.0000    0.0000
  band No.  band energies     occupation 
      1     -13.6457      2.00000
      2     -13.1527      2.00000
      3     -12.1071      2.00000
      4     -11.8679      2.00000
      5      -5.3440      2.00000
      6      -4.5950      2.00000
      7      -1.7686      2.00000
      8      -1.7680      2.00000
      9      -1.7036      2.00000
     10      -1.7027      2.00000
     11      -1.4006      2.00000
     12      -0.5909      2.00000
     13      -0.5870      2.00000
     14      -0.5278      2.00000
     15      -0.5252      2.00000
     16      -0.3481      2.00000
     17       0.8245      2.00000
     18       1.4919      2.00000
     19       3.6873      0.00000
     20       3.6915      0.00000
     21       3.9141      0.00000
     22       3.9247      0.00000
     23       3.9973      0.00000
     24       4.1052      0.00000

 k-point     2 :       0.0909    0.0000    0.0000
  band No.  band energies     occupation 
      1     -13.5153      2.00000
      2     -13.0371      2.00000
      3     -12.0502      2.00000
      4     -11.8164      2.00000
      5      -5.1896      2.00000
      6      -4.4590      2.00000
      7      -2.1123      2.00000
      8      -1.9657      2.00000
      9      -1.7272      2.00000
     10      -1.6367      2.00000
     11      -1.5762      2.00000
     12      -1.1628      2.00000
     13      -0.7796      2.00000
     14      -0.7333      2.00000
     15      -0.4048      2.00000
     16       0.0005      2.00000
     17       0.7868      2.00000
     18       1.3057      2.00000
     19       3.5472      0.00000
     20       3.6460      0.00000
     21       3.7789      0.00000
     22       3.8718      0.00000
     23       3.8895      0.00000
     24       3.9425      0.00000

 k-point     3 :       0.1818    0.0000    0.0000
  band No.  band energies     occupation 
      1     -13.1463      2.00000
      2     -12.7107      2.00000
      3     -11.8904      2.00000
      4     -11.6720      2.00000
      5      -4.7880      2.00000
      6      -4.1339      2.00000
      7      -2.8785      2.00000
      8      -2.5488      2.00000
      9      -2.3214      2.00000
     10      -1.9312      2.00000
     11      -1.2859      2.00000
     12      -1.2327      2.00000
     13      -1.2112      2.00000
     14      -1.1925      2.00000
     15      -0.4304      2.00000
     16      -0.0047      2.00000
     17       0.5520      2.00000
     18       0.7473      2.00000
     19       3.1702      0.00000
     20       3.4620      0.00000
     21       3.4765      0.00000
     22       3.6875      0.00000
     23       3.7916      0.00000
     24       4.0624      0.00000

 k-point     4 :       0.2727    0.0000    0.0000
  band No.  band energies     occupation 
      1     -12.6088      2.00000
      2     -12.2383      2.00000
      3     -11.6622      2.00000
      4     -11.4664      2.00000
      5      -4.4746      2.00000
      6      -4.0500      2.00000
      7      -3.4919      2.00000
      8      -3.0599      2.00000
      9      -2.8752      2.00000
     10      -2.6809      2.00000
     11      -1.7113      2.00000
     12      -1.6629      2.00000
     13      -0.8153      2.00000
     14      -0.7482      2.00000
     15      -0.7071      2.00000
     16      -0.3505      2.00000
     17       0.0709      2.00000
     18       0.1685      2.00000
     19       3.0780      0.00000
     20       3.2022      0.00000
     21       3.5828      0.00000
     22       3.6305      0.00000
     23       4.0075      0.00000
     24       4.5687      0.00000

 k-point     5 :       0.3636    0.0000    0.0000
  band No.  band energies     occupation 
      1     -12.0349      2.00000
      2     -11.7418      2.00000
      3     -11.4285      2.00000
      4     -11.2571      2.00000
      5      -4.8758      2.00000
      6      -4.4493      2.00000
      7      -3.6947      2.00000
      8      -3.4991      2.00000
      9      -3.2809      2.00000
     10      -2.9129      2.00000
     11      -2.0881      2.00000
     12      -2.0222      2.00000
     13      -0.9569      2.00000
     14      -0.6957      2.00000
     15      -0.4199      2.00000
     16      -0.3102      2.00000
     17      -0.1229      2.00000
     18       0.0334      2.00000
     19       3.0844      0.00000
     20       3.3167      0.00000
     21       3.6913      0.00000
     22       3.8806      0.00000
     23       4.4739      0.00000
     24       5.0573      0.00000

 k-point     6 :       0.4545   -0.0000    0.0000
  band No.  band energies     occupation 
      1     -11.6362      2.00000
      2     -11.4064      2.00000
      3     -11.2766      2.00000
      4     -11.1214      2.00000
      5      -5.3100      2.00000
      6      -4.7792      2.00000
      7      -4.0297      2.00000
      8      -3.8322      2.00000
      9      -3.3694      2.00000
     10      -3.0211      2.00000
     11      -2.2892      2.00000
     12      -2.2137      2.00000
     13      -1.0476      2.00000
     14      -0.8815      2.00000
     15      -0.2154      2.00000
     16      -0.0644      2.00000
     17       0.1047      2.00000
     18       0.2473      2.00000
     19       3.0974      0.00000
     20       3.5798      0.00000
     21       3.8676      0.00000
     22       4.2789      0.00000
     23       4.7309      0.00000
     24       5.2893      0.00000

 k-point     7 :       0.0000    0.0909    0.0000
  band No.  band energies     occupation 
      1     -13.5153      2.00000
      2     -13.0372      2.00000
      3     -12.0502      2.00000
      4     -11.8164      2.00000
      5      -5.1896      2.00000
      6      -4.4590      2.00000
      7      -2.1123      2.00000
      8      -1.9663      2.00000
      9      -1.7268      2.00000
     10      -1.6366      2.00000
     11      -1.5756      2.00000
     12      -1.1616      2.00000
     13      -0.7819      2.00000
     14      -0.7337      2.00000
     15      -0.4040      2.00000
     16       0.0007      2.00000
     17       0.7870      2.00000
     18       1.3055      2.00000
     19       3.5448      0.00000
     20       3.6472      0.00000
     21       3.7797      0.00000
     22       3.8782      0.00000
     23       3.9204      0.00000
     24       3.9407      0.00000

 k-point     8 :       0.0909    0.0909    0.0000
  band No.  band energies     occupation 
      1     -13.2653      2.00000
      2     -12.8160      2.00000
      3     -11.9416      2.00000
      4     -11.7183      2.00000
      5      -4.9063      2.00000
      6      -4.2215      2.00000
      7      -2.6517      2.00000
      8      -2.3775      2.00000
      9      -2.1136      2.00000
     10      -1.6480      2.00000
     11      -1.4104      2.00000
     12      -1.3518      2.00000
     13      -1.2445      2.00000
     14      -1.2040      2.00000
     15      -0.2535      2.00000
     16       0.1306      2.00000
     17       0.6513      2.00000
     18       0.9319      2.00000
     19       3.2553      0.00000
     20       3.3810      0.00000
     21       3.5583      0.00000
     22       3.6571      0.00000
     23       3.8382      0.00000
     24       3.9147      0.00000

 k-point     9 :       0.1818    0.0909    0.0000
  band No.  band energies     occupation 
      1     -12.8101      2.00000
      2     -12.4148      2.00000
      3     -11.7459      2.00000
      4     -11.5416      2.00000
      5      -4.4898      2.00000
      6      -3.9547      2.00000
      7      -3.3387      2.00000
      8      -2.8609      2.00000
      9      -2.6169      2.00000
     10      -2.3327      2.00000
     11      -1.8788      2.00000
     12      -1.7646      2.00000
     13      -1.0974      2.00000
     14      -1.0190      2.00000
     15      -0.3027      2.00000
     16      -0.0200      2.00000
     17       0.2805      2.00000
     18       0.3823      2.00000
     19       2.9208      0.00000
     20       3.2950      0.00000
     21       3.3823      0.00000
     22       3.5948      0.00000
     23       3.8156      0.00000
     24       4.1455      0.00000

 k-point    10 :       0.2727    0.0909    0.0000
  band No.  band energies     occupation 
      1     -12.2472      2.00000
      2     -11.9245      2.00000
      3     -11.5099      2.00000
      4     -11.3291      2.00000
      5      -4.5438      2.00000
      6      -4.1951      2.00000
      7      -3.5176      2.00000
      8      -3.3211      2.00000
      9      -3.1138      2.00000
     10      -2.8657      2.00000
     11      -2.2217      2.00000
     12      -2.0648      2.00000
     13      -0.9768      2.00000
     14      -0.8376      2.00000
     15      -0.5992      2.00000
     16      -0.4149      2.00000
     17       0.0660      2.00000
     18       0.1490      2.00000
     19       2.9202      0.00000
     20       3.2981      0.00000
     21       3.4593      0.00000
     22       3.8992      0.00000
     23       4.0719      0.00000
     24       4.6277      0.00000

 k-point    11 :       0.3636    0.0909    0.0000
  band No.  band energies     occupation 
      1     -11.7450      2.00000
      2     -11.4972      2.00000
      3     -11.3091      2.00000
      4     -11.1492      2.00000
      5      -5.0303      2.00000
      6      -4.5533      2.00000
      7      -3.9303      2.00000
      8      -3.7671      2.00000
      9      -3.3137      2.00000
     10      -2.9422      2.00000
     11      -2.3289      2.00000
     12      -2.2047      2.00000
     13      -0.9657      2.00000
     14      -0.8935      2.00000
     15      -0.7500      2.00000
     16      -0.6858      2.00000
     17       0.2599      2.00000
     18       0.3383      2.00000
     19       3.1031      0.00000
     20       3.4735      0.00000
     21       3.7456      0.00000
     22       4.1630      0.00000
     23       4.5080      0.00000
     24       5.0757      0.00000

[...]
      4     -11.3286      2.00000
      5      -4.5440      2.00000
      6      -4.1954      2.00000
      7      -3.5159      2.00000
      8      -3.3216      2.00000
      9      -3.1142      2.00000
     10      -2.8679      2.00000
     11      -2.2203      2.00000
     12      -2.0657      2.00000
     13      -0.9787      2.00000
     14      -0.8398      2.00000
     15      -0.6050      2.00000
     16      -0.4055      2.00000
     17       0.0690      2.00000
     18       0.1493      2.00000
     19       2.9206      0.00000
     20       3.2978      0.00000
     21       3.4578      0.00000
     22       3.8998      0.00000
     23       4.0714      0.00000
     24       4.6202      0.00000

 k-point    51 :       0.0000    0.4545    0.0000
  band No.  band energies     occupation 
      1     -11.6359      2.00000
      2     -11.4067      2.00000
      3     -11.2766      2.00000
      4     -11.1211      2.00000
      5      -5.3100      2.00000
      6      -4.7791      2.00000
      7      -4.0309      2.00000
      8      -3.8319      2.00000
      9      -3.3674      2.00000
     10      -3.0229      2.00000
     11      -2.2893      2.00000
     12      -2.2149      2.00000
     13      -1.0540      2.00000
     14      -0.8757      2.00000
     15      -0.2154      2.00000
     16      -0.0648      2.00000
     17       0.1036      2.00000
     18       0.2505      2.00000
     19       3.0979      0.00000
     20       3.5803      0.00000
     21       3.8676      0.00000
     22       4.2787      0.00000
     23       4.7269      0.00000
     24       5.2785      0.00000

 k-point    52 :       0.0909    0.4545    0.0000
  band No.  band energies     occupation 
      1     -11.5332      2.00000
      2     -11.3219      2.00000
      3     -11.2300      2.00000
      4     -11.0770      2.00000
      5      -5.2486      2.00000
      6      -4.7096      2.00000
      7      -4.1432      2.00000
      8      -3.9760      2.00000
      9      -3.3581      2.00000
     10      -3.0254      2.00000
     11      -2.3414      2.00000
     12      -2.2453      2.00000
     13      -1.0714      2.00000
     14      -0.8775      2.00000
     15      -0.8315      2.00000
     16      -0.6109      2.00000
     17       0.4187      2.00000
     18       0.5195      2.00000
     19       3.1260      0.00000
     20       3.6746      0.00000
     21       3.8444      0.00000
     22       4.4225      0.00000
     23       4.7841      0.00000
     24       4.9673      0.00000

 k-point    53 :       0.1818    0.4545    0.0000
  band No.  band energies     occupation 
      1     -11.4696      2.00000
      2     -11.2696      2.00000
      3     -11.1844      2.00000
      4     -11.0326      2.00000
      5      -4.8676      2.00000
      6      -4.3741      2.00000
      7      -4.2881      2.00000
      8      -4.1366      2.00000
      9      -3.2506      2.00000
     10      -2.9408      2.00000
     11      -2.3942      2.00000
     12      -2.1747      2.00000
     13      -1.8655      2.00000
     14      -1.5852      2.00000
     15      -1.0598      2.00000
     16      -0.8306      2.00000
     17       0.5429      2.00000
     18       0.6685      2.00000
     19       3.0115      0.00000
     20       3.5605      0.00000
     21       3.8616      0.00000
     22       4.1843      0.00000
     23       4.5817      0.00000
     24       4.8878      0.00000

 k-point    54 :       0.2727    0.4545    0.0000
  band No.  band energies     occupation 
      1     -11.4500      2.00000
      2     -11.2533      2.00000
      3     -11.1646      2.00000
      4     -11.0130      2.00000
      5      -4.5647      2.00000
      6      -4.3802      2.00000
      7      -4.2028      2.00000
      8      -4.1091      2.00000
      9      -3.0519      2.00000
     10      -2.7931      2.00000
     11      -2.5824      2.00000
     12      -2.3875      2.00000
     13      -2.2646      2.00000
     14      -2.0590      2.00000
     15      -1.0326      2.00000
     16      -0.8331      2.00000
     17       0.5720      2.00000
     18       0.7114      2.00000
     19       2.9172      0.00000
     20       3.3831      0.00000
     21       3.8859      0.00000
     22       3.9855      0.00000
     23       4.5896      0.00000
     24       4.7013      0.00000

 k-point    55 :       0.3636    0.4545    0.0000
  band No.  band energies     occupation 
      1     -11.4710      2.00000
      2     -11.2704      2.00000
      3     -11.1833      2.00000
      4     -11.0315      2.00000
      5      -4.8671      2.00000
      6      -4.3743      2.00000
      7      -4.2860      2.00000
      8      -4.1352      2.00000
      9      -3.2663      2.00000
     10      -2.9321      2.00000
     11      -2.3947      2.00000
     12      -2.1760      2.00000
     13      -1.8628      2.00000
     14      -1.5853      2.00000
     15      -1.0351      2.00000
     16      -0.8514      2.00000
     17       0.5453      2.00000
     18       0.6654      2.00000
     19       3.0118      0.00000
     20       3.5600      0.00000
     21       3.8626      0.00000
     22       4.1838      0.00000
     23       4.5798      0.00000
     24       4.9002      0.00000

 k-point    56 :       0.4545    0.4545    0.0000
  band No.  band energies     occupation 
      1     -11.5354      2.00000
      2     -11.3232      2.00000
      3     -11.2284      2.00000
      4     -11.0753      2.00000
      5      -5.2478      2.00000
      6      -4.7086      2.00000
      7      -4.1399      2.00000
      8      -3.9780      2.00000
      9      -3.3708      2.00000
     10      -3.0196      2.00000
     11      -2.3427      2.00000
     12      -2.2464      2.00000
     13      -1.0352      2.00000
     14      -0.8944      2.00000
     15      -0.8393      2.00000
     16      -0.6134      2.00000
     17       0.4263      2.00000
     18       0.5108      2.00000
     19       3.1267      0.00000
     20       3.6728      0.00000
     21       3.8458      0.00000
     22       4.4201      0.00000
     23       4.7856      0.00000
     24       4.9845      0.00000

 k-point    57 :      -0.4545    0.4545    0.0000
  band No.  band energies     occupation 
      1     -11.6380      2.00000
      2     -11.4074      2.00000
      3     -11.2757      2.00000
      4     -11.1193      2.00000
      5      -5.3091      2.00000
      6      -4.7783      2.00000
      7      -4.0260      2.00000
      8      -3.8362      2.00000
      9      -3.3783      2.00000
     10      -3.0183      2.00000
     11      -2.2902      2.00000
     12      -2.2148      2.00000
     13      -1.0238      2.00000
     14      -0.8966      2.00000
     15      -0.2159      2.00000
     16      -0.0644      2.00000
     17       0.1105      2.00000
     18       0.2418      2.00000
     19       3.0979      0.00000
     20       3.5783      0.00000
     21       3.8680      0.00000
     22       4.2792      0.00000
     23       4.7376      0.00000
     24       5.1760      0.00000

 k-point    58 :      -0.3636    0.4545    0.0000
  band No.  band energies     occupation 
      1     -11.7464      2.00000
      2     -11.4977      2.00000
      3     -11.3088      2.00000
      4     -11.1474      2.00000
      5      -5.0296      2.00000
      6      -4.5524      2.00000
      7      -3.9278      2.00000
      8      -3.7695      2.00000
      9      -3.3235      2.00000
     10      -2.9388      2.00000
     11      -2.3300      2.00000
     12      -2.2048      2.00000
     13      -0.9524      2.00000
     14      -0.8868      2.00000
     15      -0.7598      2.00000
     16      -0.6885      2.00000
     17       0.2657      2.00000
     18       0.3322      2.00000
     19       3.1039      0.00000
     20       3.4734      0.00000
     21       3.7450      0.00000
     22       4.1635      0.00000
     23       4.5091      0.00000
     24       5.0880      0.00000

 k-point    59 :      -0.2727    0.4545    0.0000
  band No.  band energies     occupation 
      1     -11.8154      2.00000
      2     -11.5562      2.00000
      3     -11.3241      2.00000
      4     -11.1590      2.00000
      5      -4.6362      2.00000
      6      -4.2574      2.00000
      7      -3.8477      2.00000
      8      -3.7040      2.00000
      9      -3.2192      2.00000
     10      -2.8189      2.00000
     11      -2.5099      2.00000
     12      -2.2124      2.00000
     13      -1.7322      2.00000
     14      -1.5020      2.00000
     15      -0.6720      2.00000
     16      -0.5446      2.00000
     17       0.2667      2.00000
     18       0.3635      2.00000
     19       3.0187      0.00000
     20       3.4588      0.00000
     21       3.5752      0.00000
     22       4.0059      0.00000
     23       4.1919      0.00000
     24       4.6524      0.00000

 k-point    60 :      -0.1818    0.4545    0.0000
  band No.  band energies     occupation 
      1     -11.8150      2.00000
      2     -11.5562      2.00000
      3     -11.3241      2.00000
      4     -11.1595      2.00000
      5      -4.6365      2.00000
      6      -4.2586      2.00000
      7      -3.8475      2.00000
      8      -3.7054      2.00000
      9      -3.2091      2.00000
     10      -2.8246      2.00000
     11      -2.5092      2.00000
     12      -2.2147      2.00000
     13      -1.7326      2.00000
     14      -1.5016      2.00000
     15      -0.6869      2.00000
     16      -0.5310      2.00000
     17       0.2666      2.00000
     18       0.3643      2.00000
     19       3.0188      0.00000
     20       3.4590      0.00000
     21       3.5756      0.00000
     22       4.0069      0.00000
     23       4.1909      0.00000
     24       4.6491      0.00000

 k-point    61 :      -0.0909    0.4545    0.0000
  band No.  band energies     occupation 
      1     -11.7451      2.00000
      2     -11.4975      2.00000
      3     -11.3090      2.00000
      4     -11.1487      2.00000
      5      -5.0304      2.00000
      6      -4.5534      2.00000
      7      -3.9308      2.00000
      8      -3.7676      2.00000
      9      -3.3114      2.00000
     10      -2.9448      2.00000
     11      -2.3277      2.00000
     12      -2.2056      2.00000
     13      -0.9800      2.00000
     14      -0.8949      2.00000
     15      -0.7445      2.00000
     16      -0.6757      2.00000
     17       0.2615      2.00000
     18       0.3382      2.00000
     19       3.1031      0.00000
     20       3.4750      0.00000
     21       3.7445      0.00000
     22       4.1647      0.00000
     23       4.5054      0.00000
     24       5.1177      0.00000


--------------------------------------------------------------------------------------------------------


 soft charge-density along one line, spin component           1
         0         1         2         3         4         5         6         7         8         9
 total charge-density along one line
 
 pseudopotential strength for first ion, spin component:           1
 40.743   0.009  -0.000  -0.045   0.000   0.000  -0.000  -0.000
  0.009   0.009   0.000   0.000  -0.000  -0.000  -0.000   0.000
 -0.000   0.000   8.454   0.000   0.000   0.000  -0.000  -0.000
 -0.045   0.000   0.000   8.452  -0.000  -0.000   0.000   0.000
  0.000  -0.000   0.000  -0.000   8.454  -0.000   0.000   0.000
  0.000  -0.000   0.000  -0.000  -0.000   0.027   0.000   0.000
 -0.000  -0.000  -0.000   0.000   0.000   0.000   0.027  -0.000
 -0.000   0.000  -0.000   0.000   0.000   0.000  -0.000   0.027
 total augmentation occupancy for first ion, spin component:           1
  1.900  -0.470   0.000   0.213  -0.000  -0.000   0.136   0.000
 -0.470   1.733  -0.000   1.159   0.000   0.000  -0.501  -0.000
  0.000  -0.000   1.408  -0.000   0.000  -0.469   0.000  -0.000
  0.213   1.159  -0.000   1.526   0.000   0.000  -0.489  -0.000
 -0.000   0.000   0.000   0.000   1.408  -0.000  -0.000  -0.469
 -0.000   0.000  -0.469   0.000  -0.000   0.234  -0.000  -0.000
  0.136  -0.501   0.000  -0.489  -0.000  -0.000   0.265   0.000
  0.000  -0.000  -0.000  -0.000  -0.469  -0.000   0.000   0.234


------------------------ aborting loop because EDIFF is reached ----------------------------------------


 


 total charge     
 
# of ion       s       p       d       tot
------------------------------------------
    1        1.359   2.357   0.000   3.716
    2        1.360   2.357   0.000   3.718
    3        1.366   2.331   0.000   3.696
    4        1.364   2.331   0.000   3.695
    5        0.416   0.598   4.394   5.408
    6        0.562   0.703   4.233   5.498
--------------------------------------------------
tot          6.428  10.677   8.627  25.732
 
    CHARGE:  cpu time    0.0158: real time    0.0158
    FORLOC:  cpu time    0.0002: real time    0.0002
    FORNL :  cpu time    0.0949: real time    0.0952
    STRESS:  cpu time    0.3048: real time    0.3058
    FORCOR:  cpu time    0.0018: real time    0.0018
    FORHAR:  cpu time    0.0006: real time    0.0006
    MIXING:  cpu time    0.0005: real time    0.0005
    OFIELD:  cpu time    0.0000: real time    0.0000

  DFT-D2 method for vdW energy calculation
  -------------------------------------------------------------------

  Parameters of vdW forcefield:
         C6(Jnm^6/mol)     R0(A)
   -----------------------------
   S        5.570          1.683
   Mo      24.670          1.639
   W       81.240          1.772

  IVDW =  10
  VDW_RADIUS =    50.000 A
  VDW_S6 =     0.750
  VDW_SR =     1.000
  VDW_D =    20.000
  LVDW_EWALD = F

  Number of pair interactions contributing to vdW energy:   62928
  Edisp (eV):   -1.69218
    FORVDW:  cpu time    0.0102: real time    0.0114

  FORCE on cell =-STRESS in cart. coord.  units (eV):
  Direction    XX          YY          ZZ          XY          YZ          ZX
  --------------------------------------------------------------------------------------
  Alpha Z    68.88242    68.88242    68.88242
  Ewald    3494.87546  3495.09203 -4631.91437     0.21520    -0.10750     0.10514
  Hartree  3860.11304  3860.23319 -3786.39129     0.08698    -0.04020     0.04140
  E(xc)    -139.74051  -139.73875  -140.83004    -0.00016    -0.00058     0.00092
  Local   -7965.22627 -7965.56515  7797.37184    -0.29592     0.13636    -0.13479
  n-local   258.76692   258.75843   268.81484     0.00252     0.00396    -0.00584
  augment   -54.97002   -54.96112   -56.95331     0.00456    -0.00046     0.00082
  Kinetic   477.32733   477.33733   482.05509    -0.00336    -0.01196     0.01123
  Fock        0.00000     0.00000     0.00000     0.00000     0.00000     0.00000
  vdW        -0.11140    -0.10867    -1.16375     0.00166    -0.00337     0.00371
  -------------------------------------------------------------------------------------
  Total      -0.08302    -0.07029    -0.12856     0.01148    -0.02375     0.02260
  in kB      -0.75634    -0.64036    -1.17115     0.10458    -0.21634     0.20593
  external pressure =       -0.86 kB  Pullay stress =        0.00 kB


 VOLUME and BASIS-vectors are now :
 -----------------------------------------------------------------------------
  energy-cutoff  :      400.00
  volume of cell :      175.87
      direct lattice vectors                 reciprocal lattice vectors
     3.186500000  0.000000000  0.000000000     0.313823945  0.181186339  0.000000000
    -1.593250000  2.759589949  0.000000000     0.000000000  0.362372678  0.000000000
     0.000000000  0.000000000 20.000000000     0.000000000  0.000000000  0.050000000

  length of vectors
     3.186500000  3.186500000 20.000000000     0.362372678  0.362372678  0.050000000


 FORCES acting on ions
    electron-ion (+dipol)            ewald-force                    non-local-force                 convergence-correction
 -----------------------------------------------------------------------------------------------
   -.103E-01 0.477E-02 -.789E+03   0.100E-01 -.484E-02 0.793E+03   0.317E-02 -.139E-02 -.460E+01   0.426E-06 -.529E-06 0.492E-05
   -.444E-01 0.381E-01 -.626E+02   0.456E-01 -.395E-01 0.579E+02   0.296E-02 -.227E-02 0.463E+01   -.134E-05 0.410E-06 -.115E-03
   0.478E-01 -.241E-01 0.620E+02   -.489E-01 0.257E-01 -.573E+02   -.540E-02 -.238E-02 -.474E+01   0.450E-06 -.103E-05 0.333E-03
   0.109E-01 0.372E-02 0.789E+03   -.108E-01 -.331E-02 -.794E+03   -.364E-02 -.171E-02 0.468E+01   -.898E-06 0.629E-07 0.163E-03
   -.229E-01 -.939E-02 0.426E+03   0.240E-01 0.112E-01 -.426E+03   0.467E-02 0.442E-02 -.126E-01   0.481E-07 0.294E-06 0.855E-04
   0.197E-01 -.109E-01 -.426E+03   -.199E-01 0.108E-01 0.426E+03   -.416E-02 0.184E-02 0.306E-01   0.315E-08 0.213E-06 0.331E-04
 -----------------------------------------------------------------------------------------------
   0.682E-03 0.223E-02 0.101E-01   0.156E-14 0.775E-14 -.171E-12   -.240E-02 -.149E-02 -.139E-01   -.132E-05 -.581E-06 0.504E-03
 
 
 POSITION                                       TOTAL-FORCE (eV/Angst)
 -----------------------------------------------------------------------------------
      1.54891      0.95449     13.85673         0.003166     -0.001573      0.001046
      1.54901      0.95444     10.73024         0.005611     -0.004847      0.006649
      3.17801      0.00301      7.68752        -0.007388      0.000217     -0.002944
      3.17801      0.00275      4.56895        -0.003232     -0.001420     -0.002800
      1.58439      0.92251      6.12889         0.005915      0.006052      0.001155
      3.14251      0.03445     12.29206        -0.004072      0.001571     -0.003107
 -----------------------------------------------------------------------------------
    total drift:                               -0.001718      0.000741     -0.003322


--------------------------------------------------------------------------------------------------------



  FREE ENERGIE OF THE ION-ELECTRON SYSTEM (eV)
  ---------------------------------------------------
  free  energy   TOTEN  =       -47.16299378 eV

  energy  without entropy=      -47.16299378  energy(sigma->0) =      -47.16299378
 


--------------------------------------------------------------------------------------------------------


    POTLOK:  cpu time    0.0035: real time    0.0035


--------------------------------------------------------------------------------------------------------


     LOOP+:  cpu time    8.1637: real time    8.1941
    4ORBIT:  cpu time    0.0000: real time    0.0000
 


 total charge     
 
# of ion       s       p       d       tot
------------------------------------------
    1        1.359   2.357   0.000   3.716
    2        1.360   2.357   0.000   3.718
    3        1.366   2.331   0.000   3.696
    4        1.364   2.331   0.000   3.695
    5        0.416   0.598   4.394   5.408
    6        0.562   0.703   4.233   5.498
--------------------------------------------------
tot          6.428  10.677   8.627  25.732
 

 total amount of memory used by VASP MPI-rank0    48165. kBytes
=======================================================================

   base      :      30000. kBytes
   nonl-proj :      14281. kBytes
   fftplans  :        238. kBytes
   grid      :        352. kBytes
   one-center:         15. kBytes
   wavefun   :       3279. kBytes
 
  
  
 General timing and accounting informations for this job:
 ========================================================
  
                  Total CPU time used (sec):        9.099
                            User time (sec):        8.952
                          System time (sec):        0.148
                         Elapsed time (sec):       10.047
  
                   Maximum memory used (kb):      114452.
                   Average memory used (kb):           0.
  
                          Minor page faults:        16496
                          Major page faults:            0
                 Voluntary context switches:          922
