PROCAR lm decomposed
# of k-points:   61         # of bands:   24         # of ions:    6

 k-point     1 :    0.00000000 0.00000000 0.00000000     weight = 0.00826446

band     1 # energy  -13.64567118 # occ.  2.00000000
 
ion      s     py     pz     px    dxy    dyz    dz2    dxz  x2-y2    tot
    1  0.243  0.000  0.007  0.000  0.000  0.000  0.000  0.000  0.000  0.250
    2  0.265  0.000  0.007  0.000  0.000  0.000  0.000  0.000  0.000  0.272
    3  0.008  0.000  0.000  0.000  0.000  0.000  0.000  0.000  0.000  0.008
    4  0.002  0.000  0.000  0.000  0.000  0.000  0.000  0.000  0.000  0.002
    5  0.002  0.000  0.000  0.000  0.000  0.000  0.000  0.000  0.000  0.002
    6  0.179  0.000  0.000  0.000  0.000  0.000  0.000  0.000  0.000  0.179
tot    0.699  0.000  0.014  0.000  0.000  0.000  0.000  0.000  0.000  0.713
 
band     2 # energy  -13.15273934 # occ.  2.00000000
 
ion      s     py     pz     px    dxy    dyz    dz2    dxz  x2-y2    tot
    1  0.011  0.000  0.000  0.000  0.000  0.000  0.000  0.000  0.000  0.011
    2  0.001  0.000  0.000  0.000  0.000  0.000  0.000  0.000  0.000  0.001
    3  0.276  0.000  0.005  0.000  0.000  0.000  0.000  0.000  0.000  0.281
    4  0.262  0.000  0.005  0.000  0.000  0.000  0.000  0.000  0.000  0.267
    5  0.129  0.000  0.000  0.000  0.000  0.000  0.000  0.000  0.000  0.129
    6  0.004  0.000  0.000  0.000  0.000  0.000  0.000  0.000  0.000  0.004
tot    0.683  0.000  0.011  0.000  0.000  0.000  0.000  0.000  0.000  0.694
 
band     3 # energy  -12.10706368 # occ.  2.00000000
 
ion      s     py     pz     px    dxy    dyz    dz2    dxz  x2-y2    tot
    1  0.248  0.000  0.001  0.000  0.000  0.000  0.000  0.000  0.000  0.248
    2  0.217  0.000  0.000  0.000  0.000  0.000  0.000  0.000  0.000  0.217
    3  0.056  0.000  0.000  0.000  0.000  0.000  0.000  0.000  0.000  0.057
    4  0.100  0.000  0.000  0.000  0.000  0.000  0.000  0.000  0.000  0.101
    5  0.001  0.000  0.014  0.000  0.000  0.000  0.000  0.000  0.000  0.015
    6  0.000  0.000  0.050  0.000  0.000  0.000  0.000  0.000  0.000  0.051
tot    0.623  0.000  0.066  0.000  0.000  0.000  0.000  0.000  0.000  0.688
 
band     4 # energy  -11.86785803 # occ.  2.00000000
 
ion      s     py     pz     px    dxy    dyz    dz2    dxz  x2-y2    tot
    1  0.071  0.000  0.000  0.000  0.000  0.000  0.000  0.000  0.000  0.071
    2  0.089  0.000  0.001  0.000  0.000  0.000  0.000  0.000  0.000  0.090
    3  0.249  0.000  0.001  0.000  0.000  0.000  0.000  0.000  0.000  0.249
    4  0.226  0.000  0.000  0.000  0.000  0.000  0.000  0.000  0.000  0.226
    5  0.000  0.000  0.046  0.000  0.000  0.000  0.000  0.000  0.000  0.046
    6  0.000  0.000  0.018  0.000  0.000  0.000  0.000  0.000  0.000  0.019
tot    0.636  0.000  0.065  0.000  0.000  0.000  0.000  0.000  0.000  0.701
 
band     5 # energy   -5.34404167 # occ.  2.00000000
 
ion      s     py     pz     px    dxy    dyz    dz2    dxz  x2-y2    tot
    1  0.027  0.000  0.090  0.000  0.000  0.000  0.000  0.000  0.000  0.117
    2  0.021  0.000  0.112  0.000  0.000  0.000  0.000  0.000  0.000  0.133
    3  0.000  0.000  0.029  0.000  0.000  0.000  0.000  0.000  0.000  0.029
    4  0.003  0.000  0.011  0.000  0.000  0.000  0.000  0.000  0.000  0.014
    5  0.019  0.000  0.001  0.000  0.000  0.000  0.020  0.000  0.000  0.039
    6  0.132  0.000  0.000  0.000  0.000  0.000  0.160  0.000  0.000  0.293
tot    0.202  0.000  0.242  0.000  0.000  0.000  0.180  0.000  0.000  0.624
 
band     6 # energy   -4.59499801 # occ.  2.00000000
 
ion      s     py     pz     px    dxy    dyz    dz2    dxz  x2-y2    tot
    1  0.004  0.000  0.025  0.000  0.000  0.000  0.000  0.000  0.000  0.028
    2  0.009  0.000  0.007  0.000  0.000  0.000  0.000  0.000  0.000  0.016
    3  0.017  0.000  0.100  0.000  0.000  0.000  0.000  0.000  0.000  0.118
    4  0.015  0.000  0.112  0.000  0.000  0.000  0.000  0.000  0.000  0.127
    5  0.110  0.000  0.000  0.000  0.000  0.000  0.182  0.000  0.000  0.292
    6  0.020  0.000  0.001  0.000  0.000  0.000  0.037  0.000  0.000  0.058
tot    0.175  0.000  0.244  0.000  0.000  0.000  0.219  0.000  0.000  0.638
 
band     7 # energy   -1.76863538 # occ.  2.00000000
 
ion      s     py     pz     px    dxy    dyz    dz2    dxz  x2-y2    tot
    1  0.000  0.036  0.000  0.084  0.000  0.000  0.000  0.000  0.000  0.120
    2  0.000  0.037  0.000  0.088  0.000  0.000  0.000  0.000  0.000  0.126
    3  0.000  0.000  0.000  0.000  0.000  0.000  0.000  0.000  0.000  0.000
    4  0.000  0.000  0.000  0.000  0.000  0.000  0.000  0.000  0.000  0.000
    5  0.000  0.000  0.000  0.000  0.001  0.000  0.000  0.000  0.000  0.001
    6  0.000  0.002  0.000  0.006  0.410  0.000  0.000  0.000  0.173  0.592
tot    0.000  0.075  0.000  0.179  0.411  0.000  0.000  0.000  0.174  0.839
 
band     8 # energy   -1.76797101 # occ.  2.00000000
 
ion      s     py     pz     px    dxy    dyz    dz2    dxz  x2-y2    tot
    1  0.000  0.084  0.000  0.036  0.000  0.000  0.000  0.000  0.000  0.119
    2  0.000  0.088  0.000  0.037  0.000  0.000  0.000  0.000  0.000  0.126
    3  0.000  0.000  0.000  0.000  0.000  0.000  0.000  0.000  0.000  0.001
    4  0.000  0.000  0.000  0.000  0.000  0.000  0.000  0.000  0.000  0.000
    5  0.000  0.000  0.000  0.000  0.001  0.000  0.000  0.000  0.002  0.002
    6  0.000  0.006  0.000  0.002  0.173  0.000  0.000  0.000  0.410  0.591
tot    0.000  0.179  0.000  0.076  0.174  0.000  0.000  0.000  0.411  0.839
 
band     9 # energy   -1.70363467 # occ.  2.00000000
 
ion      s     py     pz     px    dxy    dyz    dz2    dxz  x2-y2    tot
    1  0.000  0.000  0.000  0.000  0.000  0.000  0.000  0.000  0.000  0.000
    2  0.000  0.000  0.000  0.000  0.000  0.000  0.000  0.000  0.000  0.000
    3  0.000  0.082  0.000  0.033  0.000  0.000  0.000  0.000  0.000  0.115
    4  0.000  0.080  0.000  0.032  0.000  0.000  0.000  0.000  0.000  0.111
    5  0.000  0.005  0.000  0.002  0.169  0.000  0.000  0.000  0.427  0.603
    6  0.000  0.000  0.000  0.000  0.000  0.000  0.000  0.000  0.001  0.002
tot    0.000  0.167  0.000  0.066  0.169  0.000  0.000  0.000  0.429  0.832
 
band    10 # energy   -1.70272177 # occ.  2.00000000
 
ion      s     py     pz     px    dxy    dyz    dz2    dxz  x2-y2    tot
    1  0.000  0.000  0.000  0.000  0.000  0.000  0.000  0.000  0.000  0.000
    2  0.000  0.000  0.000  0.000  0.000  0.000  0.000  0.000  0.000  0.000
    3  0.000  0.033  0.000  0.082  0.000  0.000  0.000  0.000  0.000  0.115
    4  0.000  0.032  0.000  0.080  0.000  0.000  0.000  0.000  0.000  0.111
    5  0.000  0.002  0.000  0.005  0.427  0.000  0.000  0.000  0.169  0.603
    6  0.000  0.000  0.000  0.000  0.001  0.000  0.000  0.000  0.001  0.002
tot    0.000  0.066  0.000  0.167  0.429  0.000  0.000  0.000  0.169  0.832
 
band    11 # energy   -1.40055613 # occ.  2.00000000
 
ion      s     py     pz     px    dxy    dyz    dz2    dxz  x2-y2    tot
    1  0.000  0.000  0.130  0.000  0.000  0.000  0.000  0.000  0.000  0.130
    2  0.002  0.000  0.128  0.000  0.000  0.000  0.000  0.000  0.000  0.130
    3  0.003  0.000  0.095  0.000  0.000  0.000  0.000  0.000  0.000  0.098
    4  0.000  0.000  0.101  0.000  0.000  0.000  0.000  0.000  0.000  0.101
    5  0.000  0.000  0.024  0.000  0.000  0.000  0.014  0.000  0.000  0.039
    6  0.000  0.000  0.035  0.000  0.000  0.000  0.008  0.000  0.000  0.044
tot    0.005  0.000  0.514  0.000  0.000  0.000  0.023  0.000  0.000  0.542
 
band    12 # energy   -0.59089618 # occ.  2.00000000
 
ion      s     py     pz     px    dxy    dyz    dz2    dxz  x2-y2    tot
    1  0.000  0.003  0.000  0.005  0.000  0.000  0.000  0.000  0.000  0.007
    2  0.000  0.002  0.000  0.004  0.000  0.000  0.000  0.000  0.000  0.007
    3  0.000  0.043  0.000  0.101  0.000  0.000  0.000  0.000  0.000  0.144
    4  0.000  0.043  0.000  0.103  0.000  0.000  0.000  0.000  0.000  0.146
    5  0.000  0.000  0.000  0.000  0.000  0.155  0.000  0.368  0.000  0.523
    6  0.000  0.000  0.000  0.000  0.000  0.007  0.000  0.013  0.000  0.019
tot    0.000  0.091  0.000  0.214  0.000  0.162  0.000  0.380  0.000  0.848
 
band    13 # energy   -0.58698187 # occ.  2.00000000
 
ion      s     py     pz     px    dxy    dyz    dz2    dxz  x2-y2    tot
    1  0.000  0.005  0.000  0.002  0.000  0.000  0.000  0.000  0.000  0.007
    2  0.000  0.005  0.000  0.002  0.000  0.000  0.000  0.000  0.000  0.007
    3  0.000  0.101  0.000  0.044  0.000  0.000  0.000  0.000  0.000  0.144
    4  0.000  0.102  0.000  0.044  0.000  0.000  0.000  0.000  0.000  0.146
    5  0.000  0.000  0.000  0.000  0.000  0.366  0.000  0.158  0.000  0.524
    6  0.000  0.000  0.000  0.000  0.000  0.014  0.000  0.005  0.000  0.019
tot    0.000  0.214  0.000  0.091  0.000  0.380  0.000  0.163  0.000  0.848
 
band    14 # energy   -0.52775017 # occ.  2.00000000
 
ion      s     py     pz     px    dxy    dyz    dz2    dxz  x2-y2    tot
    1  0.000  0.113  0.000  0.054  0.000  0.000  0.000  0.000  0.000  0.167
    2  0.000  0.111  0.000  0.053  0.000  0.000  0.000  0.000  0.000  0.163
    3  0.000  0.005  0.000  0.002  0.000  0.000  0.000  0.000  0.000  0.006
    4  0.000  0.005  0.000  0.002  0.000  0.000  0.000  0.000  0.000  0.006
    5  0.000  0.000  0.000  0.000  0.000  0.018  0.000  0.007  0.000  0.025
    6  0.000  0.000  0.000  0.000  0.000  0.323  0.000  0.154  0.000  0.477
tot    0.000  0.233  0.000  0.110  0.000  0.340  0.000  0.161  0.000  0.844
 
band    15 # energy   -0.52515122 # occ.  2.00000000
 
ion      s     py     pz     px    dxy    dyz    dz2    dxz  x2-y2    tot
    1  0.000  0.054  0.000  0.115  0.000  0.000  0.000  0.000  0.000  0.168
    2  0.000  0.053  0.000  0.112  0.000  0.000  0.000  0.000  0.000  0.165
    3  0.000  0.002  0.000  0.003  0.000  0.000  0.000  0.000  0.000  0.005
    4  0.000  0.002  0.000  0.003  0.000  0.000  0.000  0.000  0.000  0.005
    5  0.000  0.000  0.000  0.000  0.000  0.007  0.000  0.013  0.000  0.020
    6  0.000  0.000  0.000  0.000  0.000  0.153  0.000  0.327  0.000  0.480
tot    0.000  0.110  0.000  0.234  0.000  0.161  0.000  0.340  0.000  0.844
 
band    16 # energy   -0.34811018 # occ.  2.00000000
 
ion      s     py     pz     px    dxy    dyz    dz2    dxz  x2-y2    tot
    1  0.000  0.000  0.124  0.000  0.000  0.000  0.000  0.000  0.000  0.124
    2  0.001  0.000  0.090  0.000  0.000  0.000  0.000  0.000  0.000  0.091
    3  0.000  0.000  0.121  0.000  0.000  0.000  0.000  0.000  0.000  0.121
    4  0.000  0.000  0.157  0.000  0.000  0.000  0.000  0.000  0.000  0.157
    5  0.000  0.000  0.030  0.000  0.000  0.000  0.025  0.000  0.000  0.055
    6  0.000  0.000  0.025  0.000  0.000  0.000  0.027  0.000  0.000  0.052
tot    0.001  0.000  0.546  0.000  0.000  0.000  0.052  0.000  0.000  0.600
 
band    17 # energy    0.82446797 # occ.  2.00000000
 
ion      s     py     pz     px    dxy    dyz    dz2    dxz  x2-y2    tot
    1  0.001  0.000  0.046  0.000  0.000  0.000  0.000  0.000  0.000  0.047
    2  0.000  0.000  0.005  0.000  0.000  0.000  0.000  0.000  0.000  0.005
    3  0.001  0.000  0.026  0.000  0.000  0.000  0.000  0.000  0.000  0.026
    4  0.001  0.000  0.057  0.000  0.000  0.000  0.000  0.000  0.000  0.058
    5  0.008  0.000  0.000  0.000  0.000  0.000  0.376  0.000  0.000  0.384
    6  0.003  0.000  0.001  0.000  0.000  0.000  0.223  0.000  0.000  0.228
tot    0.013  0.000  0.136  0.000  0.000  0.000  0.599  0.000  0.000  0.748
 
band    18 # energy    1.49193453 # occ.  2.00000000
 
ion      s     py     pz     px    dxy    dyz    dz2    dxz  x2-y2    tot
    1  0.003  0.000  0.014  0.000  0.000  0.000  0.000  0.000  0.000  0.017
    2  0.008  0.000  0.106  0.000  0.000  0.000  0.000  0.000  0.000  0.115
    3  0.006  0.000  0.092  0.000  0.000  0.000  0.000  0.000  0.000  0.098
    4  0.002  0.000  0.004  0.000  0.000  0.000  0.000  0.000  0.000  0.006
    5  0.011  0.000  0.003  0.000  0.000  0.000  0.196  0.000  0.000  0.210
    6  0.016  0.000  0.002  0.000  0.000  0.000  0.346  0.000  0.000  0.365
tot    0.047  0.000  0.221  0.000  0.000  0.000  0.543  0.000  0.000  0.811
 
band    19 # energy    3.68730950 # occ.  0.00000000
 
ion      s     py     pz     px    dxy    dyz    dz2    dxz  x2-y2    tot
    1  0.000  0.000  0.000  0.000  0.000  0.000  0.000  0.000  0.000  0.001
    2  0.000  0.001  0.000  0.000  0.000  0.000  0.000  0.000  0.000  0.001
    3  0.000  0.169  0.000  0.033  0.000  0.000  0.000  0.000  0.000  0.202
    4  0.000  0.142  0.000  0.028  0.000  0.000  0.000  0.000  0.000  0.170
    5  0.000  0.000  0.000  0.000  0.000  0.296  0.000  0.058  0.000  0.354
    6  0.000  0.000  0.000  0.000  0.000  0.000  0.000  0.000  0.001  0.001
tot    0.000  0.312  0.000  0.061  0.000  0.296  0.000  0.058  0.001  0.728
 
band    20 # energy    3.69145880 # occ.  0.00000000
 
ion      s     py     pz     px    dxy    dyz    dz2    dxz  x2-y2    tot
    1  0.000  0.000  0.000  0.000  0.000  0.000  0.000  0.000  0.000  0.001
    2  0.000  0.000  0.000  0.001  0.000  0.000  0.000  0.000  0.000  0.001
    3  0.000  0.033  0.000  0.168  0.000  0.000  0.000  0.000  0.000  0.201
    4  0.000  0.028  0.000  0.142  0.000  0.000  0.000  0.000  0.000  0.170
    5  0.000  0.000  0.000  0.000  0.000  0.058  0.000  0.296  0.000  0.354
    6  0.000  0.000  0.000  0.000  0.001  0.000  0.000  0.000  0.000  0.001
tot    0.000  0.061  0.000  0.312  0.001  0.058  0.000  0.296  0.000  0.728
 
band    21 # energy    3.91411592 # occ.  0.00000000
 
ion      s     py     pz     px    dxy    dyz    dz2    dxz  x2-y2    tot
    1  0.000  0.001  0.000  0.001  0.000  0.000  0.000  0.000  0.000  0.002
    2  0.000  0.009  0.000  0.026  0.000  0.000  0.000  0.000  0.000  0.035
    3  0.000  0.044  0.000  0.139  0.000  0.000  0.000  0.000  0.000  0.182
    4  0.000  0.056  0.000  0.170  0.000  0.000  0.000  0.000  0.000  0.227
    5  0.000  0.004  0.000  0.013  0.202  0.000  0.000  0.001  0.065  0.285
    6  0.000  0.000  0.000  0.001  0.008  0.006  0.000  0.021  0.004  0.040
tot    0.000  0.114  0.000  0.349  0.210  0.007  0.000  0.022  0.069  0.770
 
band    22 # energy    3.92467217 # occ.  0.00000000
 
ion      s     py     pz     px    dxy    dyz    dz2    dxz  x2-y2    tot
    1  0.000  0.005  0.000  0.003  0.000  0.000  0.000  0.000  0.000  0.008
    2  0.000  0.000  0.000  0.002  0.000  0.000  0.000  0.000  0.000  0.002
    3  0.000  0.158  0.000  0.047  0.000  0.000  0.000  0.000  0.000  0.205
    4  0.000  0.186  0.000  0.055  0.000  0.000  0.000  0.000  0.000  0.241
    5  0.000  0.014  0.000  0.004  0.067  0.000  0.000  0.000  0.225  0.310
    6  0.000  0.000  0.000  0.000  0.001  0.002  0.000  0.005  0.002  0.010
tot    0.000  0.363  0.000  0.111  0.067  0.002  0.000  0.005  0.227  0.775
 
band    23 # energy    3.99731660 # occ.  0.00000000
 
ion      s     py     pz     px    dxy    dyz    dz2    dxz  x2-y2    tot
    1  0.000  0.023  0.000  0.156  0.000  0.000  0.000  0.000  0.000  0.179
    2  0.000  0.004  0.000  0.125  0.000  0.000  0.000  0.000  0.000  0.129
    3  0.000  0.001  0.000  0.014  0.000  0.000  0.000  0.000  0.000  0.015
    4  0.000  0.001  0.000  0.014  0.000  0.000  0.000  0.000  0.000  0.015
    5  0.000  0.000  0.000  0.001  0.018  0.000  0.000  0.000  0.001  0.021
    6  0.000  0.001  0.000  0.000  0.004  0.020  0.000  0.331  0.007  0.363
tot    0.000  0.029  0.000  0.312  0.022  0.020  0.000  0.331  0.008  0.722
 
band    24 # energy    4.10521992 # occ.  0.00000000
 
ion      s     py     pz     px    dxy    dyz    dz2    dxz  x2-y2    tot
    1  0.000  0.192  0.000  0.080  0.000  0.000  0.000  0.000  0.000  0.272
    2  0.000  0.006  0.000  0.116  0.000  0.000  0.000  0.000  0.000  0.122
    3  0.000  0.001  0.000  0.005  0.000  0.000  0.000  0.000  0.000  0.006
    4  0.000  0.000  0.000  0.002  0.000  0.000  0.000  0.000  0.000  0.002
    5  0.000  0.000  0.000  0.000  0.004  0.000  0.000  0.000  0.001  0.005
    6  0.000  0.005  0.000  0.010  0.133  0.120  0.000  0.008  0.069  0.345
tot    0.000  0.205  0.000  0.213  0.137  0.120  0.000  0.008  0.070  0.753
 

 k-point     2 :    0.09090909 0.00000000 0.00000000     weight = 0.01652893

band     1 # energy  -13.51527228 # occ.  2.00000000
 
ion      s     py     pz     px    dxy    dyz    dz2    dxz  x2-y2    tot
    1  0.244  0.000  0.007  0.000  0.000  0.000  0.000  0.000  0.000  0.252
    2  0.268  0.000  0.007  0.000  0.000  0.000  0.000  0.000  0.000  0.275
    3  0.009  0.000  0.000  0.000  0.000  0.000  0.000  0.000  0.000  0.009
    4  0.002  0.000  0.000  0.000  0.000  0.000  0.000  0.000  0.000  0.002
    5  0.002  0.000  0.000  0.000  0.000  0.000  0.000  0.000  0.000  0.002
    6  0.171  0.001  0.000  0.003  0.001  0.000  0.000  0.000  0.000  0.176
tot    0.695  0.001  0.013  0.004  0.001  0.000  0.000  0.000  0.000  0.715
 
band     2 # energy  -13.03714779 # occ.  2.00000000
 
ion      s     py     pz     px    dxy    dyz    dz2    dxz  x2-y2    tot
    1  0.012  0.000  0.000  0.000  0.000  0.000  0.000  0.000  0.000  0.012
    2  0.001  0.000  0.000  0.000  0.000  0.000  0.000  0.000  0.000  0.001
    3  0.278  0.000  0.005  0.000  0.000  0.000  0.000  0.000  0.000  0.284
    4  0.264  0.000  0.005  0.000  0.000  0.000  0.000  0.000  0.000  0.269
    5  0.123  0.001  0.000  0.003  0.001  0.000  0.000  0.000  0.000  0.128
    6  0.004  0.000  0.000  0.000  0.000  0.000  0.000  0.000  0.000  0.004
tot    0.680  0.001  0.011  0.003  0.001  0.000  0.000  0.000  0.000  0.697
 
band     3 # energy  -12.05021006 # occ.  2.00000000
 
ion      s     py     pz     px    dxy    dyz    dz2    dxz  x2-y2    tot
    1  0.252  0.000  0.001  0.000  0.000  0.000  0.000  0.000  0.000  0.253
    2  0.220  0.000  0.000  0.000  0.000  0.000  0.000  0.000  0.000  0.220
    3  0.053  0.000  0.000  0.000  0.000  0.000  0.000  0.000  0.000  0.053
    4  0.098  0.000  0.000  0.000  0.000  0.000  0.000  0.000  0.000  0.099
    5  0.001  0.000  0.013  0.000  0.000  0.000  0.000  0.001  0.000  0.015
    6  0.000  0.000  0.049  0.000  0.000  0.001  0.000  0.004  0.000  0.054
tot    0.624  0.000  0.063  0.000  0.000  0.002  0.000  0.005  0.000  0.694
 
band     4 # energy  -11.81641665 # occ.  2.00000000
 
ion      s     py     pz     px    dxy    dyz    dz2    dxz  x2-y2    tot
    1  0.068  0.000  0.000  0.000  0.000  0.000  0.000  0.000  0.000  0.068
    2  0.087  0.000  0.001  0.000  0.000  0.000  0.000  0.000  0.000  0.087
    3  0.252  0.000  0.001  0.000  0.000  0.000  0.000  0.000  0.000  0.253
    4  0.230  0.000  0.000  0.000  0.000  0.000  0.000  0.000  0.000  0.230
    5  0.000  0.000  0.044  0.000  0.000  0.001  0.000  0.004  0.000  0.049
    6  0.000  0.000  0.017  0.000  0.000  0.000  0.000  0.001  0.000  0.019
tot    0.636  0.000  0.062  0.000  0.000  0.002  0.000  0.005  0.000  0.706
 
band     5 # energy   -5.18960752 # occ.  2.00000000
 
ion      s     py     pz     px    dxy    dyz    dz2    dxz  x2-y2    tot
    1  0.025  0.000  0.091  0.000  0.000  0.000  0.000  0.000  0.000  0.116
    2  0.020  0.000  0.114  0.000  0.000  0.000  0.000  0.000  0.000  0.134
    3  0.000  0.000  0.031  0.000  0.000  0.000  0.000  0.000  0.000  0.031
    4  0.003  0.000  0.012  0.000  0.000  0.000  0.000  0.000  0.000  0.015
    5  0.018  0.000  0.000  0.001  0.001  0.000  0.020  0.000  0.000  0.041
    6  0.124  0.001  0.000  0.004  0.003  0.000  0.153  0.000  0.001  0.286
tot    0.191  0.002  0.248  0.005  0.003  0.000  0.173  0.000  0.001  0.624
 
band     6 # energy   -4.45896938 # occ.  2.00000000
 
ion      s     py     pz     px    dxy    dyz    dz2    dxz  x2-y2    tot
    1  0.004  0.000  0.027  0.000  0.000  0.000  0.000  0.000  0.000  0.031
    2  0.009  0.000  0.007  0.000  0.000  0.000  0.000  0.000  0.000  0.016
    3  0.016  0.000  0.101  0.001  0.000  0.000  0.000  0.000  0.000  0.118
    4  0.014  0.000  0.114  0.001  0.000  0.000  0.000  0.000  0.000  0.128
    5  0.099  0.001  0.000  0.004  0.005  0.000  0.174  0.000  0.002  0.286
    6  0.020  0.000  0.001  0.001  0.000  0.000  0.037  0.000  0.000  0.060
tot    0.162  0.002  0.249  0.006  0.006  0.000  0.212  0.000  0.002  0.639
 
band     7 # energy   -2.11226692 # occ.  2.00000000
 
ion      s     py     pz     px    dxy    dyz    dz2    dxz  x2-y2    tot
    1  0.005  0.030  0.000  0.089  0.000  0.000  0.000  0.000  0.000  0.124
    2  0.005  0.031  0.000  0.095  0.000  0.000  0.000  0.000  0.000  0.132
    3  0.000  0.000  0.000  0.000  0.000  0.000  0.000  0.000  0.000  0.000
    4  0.000  0.000  0.000  0.000  0.000  0.000  0.000  0.000  0.000  0.000
    5  0.000  0.000  0.000  0.000  0.001  0.000  0.000  0.000  0.000  0.001
    6  0.019  0.003  0.000  0.008  0.394  0.000  0.000  0.000  0.131  0.555
tot    0.030  0.064  0.000  0.192  0.395  0.000  0.000  0.000  0.131  0.812
 
band     8 # energy   -1.96566516 # occ.  2.00000000
 
ion      s     py     pz     px    dxy    dyz    dz2    dxz  x2-y2    tot
    1  0.000  0.000  0.000  0.000  0.000  0.000  0.000  0.000  0.000  0.001
    2  0.000  0.000  0.000  0.000  0.000  0.000  0.000  0.000  0.000  0.000
    3  0.004  0.029  0.000  0.086  0.000  0.000  0.000  0.000  0.000  0.120
    4  0.004  0.029  0.000  0.086  0.000  0.000  0.000  0.000  0.000  0.119
    5  0.018  0.002  0.000  0.006  0.403  0.000  0.000  0.000  0.134  0.563
    6  0.000  0.000  0.000  0.000  0.001  0.000  0.000  0.000  0.000  0.002
tot    0.026  0.059  0.001  0.178  0.404  0.000  0.000  0.000  0.135  0.804
 
band     9 # energy   -1.72719283 # occ.  2.00000000
 
ion      s     py     pz     px    dxy    dyz    dz2    dxz  x2-y2    tot
    1  0.000  0.005  0.096  0.016  0.000  0.000  0.000  0.000  0.000  0.117
    2  0.001  0.005  0.087  0.014  0.000  0.000  0.000  0.000  0.000  0.107
    3  0.002  0.005  0.065  0.013  0.000  0.000  0.000  0.000  0.000  0.085
    4  0.000  0.003  0.079  0.010  0.000  0.000  0.000  0.000  0.000  0.093
    5  0.001  0.000  0.010  0.000  0.001  0.022  0.009  0.067  0.000  0.109
    6  0.000  0.000  0.013  0.000  0.000  0.025  0.005  0.075  0.000  0.119
tot    0.005  0.018  0.349  0.055  0.001  0.047  0.014  0.141  0.000  0.630
 
band    10 # energy   -1.63666452 # occ.  2.00000000
 
ion      s     py     pz     px    dxy    dyz    dz2    dxz  x2-y2    tot
    1  0.000  0.094  0.000  0.031  0.000  0.000  0.000  0.000  0.000  0.125
    2  0.000  0.100  0.000  0.033  0.000  0.000  0.000  0.000  0.000  0.133
    3  0.000  0.001  0.000  0.000  0.000  0.000  0.000  0.000  0.000  0.001
    4  0.000  0.001  0.000  0.000  0.000  0.000  0.000  0.000  0.000  0.001
    5  0.000  0.000  0.000  0.000  0.001  0.000  0.000  0.000  0.003  0.004
    6  0.000  0.010  0.000  0.003  0.138  0.000  0.000  0.000  0.417  0.569
tot    0.000  0.205  0.000  0.068  0.140  0.000  0.000  0.000  0.420  0.833
 
band    11 # energy   -1.57619683 # occ.  2.00000000
 
ion      s     py     pz     px    dxy    dyz    dz2    dxz  x2-y2    tot
    1  0.000  0.001  0.000  0.000  0.000  0.000  0.000  0.000  0.000  0.001
    2  0.000  0.001  0.000  0.000  0.000  0.000  0.000  0.000  0.000  0.001
    3  0.000  0.091  0.000  0.030  0.000  0.000  0.000  0.000  0.000  0.121
    4  0.000  0.087  0.000  0.029  0.000  0.000  0.000  0.000  0.000  0.116
    5  0.000  0.008  0.000  0.003  0.143  0.000  0.000  0.000  0.430  0.583
    6  0.000  0.000  0.000  0.000  0.001  0.000  0.000  0.000  0.003  0.004
tot    0.000  0.188  0.000  0.063  0.144  0.000  0.000  0.000  0.433  0.827
 
band    12 # energy   -1.16278010 # occ.  2.00000000
 
ion      s     py     pz     px    dxy    dyz    dz2    dxz  x2-y2    tot
    1  0.000  0.012  0.036  0.037  0.000  0.000  0.000  0.000  0.000  0.085
    2  0.000  0.012  0.034  0.036  0.000  0.000  0.000  0.000  0.000  0.083
    3  0.000  0.014  0.040  0.042  0.000  0.000  0.000  0.000  0.000  0.096
    4  0.000  0.014  0.039  0.043  0.000  0.000  0.000  0.000  0.000  0.098
    5  0.000  0.000  0.001  0.000  0.000  0.056  0.005  0.168  0.000  0.230
    6  0.000  0.000  0.001  0.000  0.000  0.041  0.005  0.121  0.000  0.169
tot    0.001  0.053  0.151  0.158  0.000  0.097  0.010  0.289  0.000  0.761
 
band    13 # energy   -0.77963896 # occ.  2.00000000
 
ion      s     py     pz     px    dxy    dyz    dz2    dxz  x2-y2    tot
    1  0.000  0.013  0.000  0.004  0.000  0.000  0.000  0.000  0.000  0.017
    2  0.000  0.011  0.000  0.004  0.000  0.000  0.000  0.000  0.000  0.015
    3  0.000  0.103  0.000  0.035  0.000  0.000  0.000  0.000  0.000  0.137
    4  0.000  0.106  0.000  0.036  0.000  0.000  0.000  0.000  0.000  0.142
    5  0.000  0.000  0.000  0.000  0.000  0.362  0.000  0.121  0.000  0.483
    6  0.000  0.000  0.000  0.000  0.000  0.033  0.000  0.011  0.000  0.044
tot    0.000  0.233  0.000  0.078  0.000  0.395  0.000  0.132  0.000  0.838
 
band    14 # energy   -0.73329829 # occ.  2.00000000
 
ion      s     py     pz     px    dxy    dyz    dz2    dxz  x2-y2    tot
    1  0.000  0.119  0.000  0.040  0.000  0.000  0.000  0.000  0.000  0.159
    2  0.000  0.116  0.000  0.039  0.000  0.000  0.000  0.000  0.000  0.154
    3  0.000  0.011  0.000  0.003  0.000  0.000  0.000  0.000  0.000  0.014
    4  0.000  0.010  0.000  0.003  0.000  0.000  0.000  0.000  0.000  0.014
    5  0.000  0.000  0.000  0.000  0.000  0.037  0.000  0.012  0.000  0.050
    6  0.000  0.000  0.000  0.000  0.000  0.334  0.000  0.112  0.000  0.446
tot    0.000  0.256  0.000  0.085  0.000  0.372  0.000  0.124  0.000  0.837
 
band    15 # energy   -0.40481000 # occ.  2.00000000
 
ion      s     py     pz     px    dxy    dyz    dz2    dxz  x2-y2    tot
    1  0.000  0.022  0.036  0.065  0.000  0.000  0.000  0.000  0.000  0.123
    2  0.000  0.022  0.041  0.067  0.000  0.000  0.000  0.000  0.000  0.130
    3  0.000  0.014  0.029  0.042  0.000  0.000  0.000  0.000  0.000  0.084
    4  0.000  0.014  0.023  0.040  0.000  0.000  0.000  0.000  0.000  0.076
    5  0.000  0.000  0.016  0.000  0.000  0.030  0.007  0.089  0.000  0.142
    6  0.000  0.000  0.028  0.000  0.000  0.037  0.004  0.112  0.000  0.181
tot    0.001  0.072  0.172  0.213  0.000  0.067  0.011  0.201  0.000  0.737
 
band    16 # energy    0.00050772 # occ.  2.00000000
 
ion      s     py     pz     px    dxy    dyz    dz2    dxz  x2-y2    tot
    1  0.000  0.008  0.085  0.025  0.000  0.000  0.000  0.000  0.000  0.118
    2  0.001  0.007  0.054  0.021  0.000  0.000  0.000  0.000  0.000  0.083
    3  0.001  0.010  0.081  0.030  0.000  0.000  0.000  0.000  0.000  0.121
    4  0.000  0.011  0.117  0.034  0.000  0.000  0.000  0.000  0.000  0.163
    5  0.000  0.000  0.034  0.000  0.000  0.012  0.022  0.036  0.000  0.103
    6  0.000  0.000  0.026  0.000  0.000  0.006  0.024  0.018  0.000  0.074
tot    0.002  0.036  0.396  0.110  0.000  0.018  0.045  0.054  0.000  0.662
 
band    17 # energy    0.78682883 # occ.  2.00000000
 
ion      s     py     pz     px    dxy    dyz    dz2    dxz  x2-y2    tot
    1  0.001  0.001  0.044  0.003  0.000  0.000  0.000  0.000  0.000  0.049
    2  0.000  0.000  0.004  0.000  0.000  0.000  0.000  0.000  0.000  0.004
    3  0.001  0.001  0.026  0.002  0.000  0.000  0.000  0.000  0.000  0.030
    4  0.002  0.001  0.055  0.004  0.000  0.000  0.000  0.000  0.000  0.063
    5  0.009  0.000  0.000  0.000  0.008  0.000  0.378  0.000  0.003  0.398
    6  0.003  0.000  0.001  0.000  0.004  0.000  0.207  0.000  0.001  0.219
tot    0.017  0.004  0.130  0.011  0.012  0.000  0.585  0.000  0.004  0.763
 
band    18 # energy    1.30572820 # occ.  2.00000000
 
ion      s     py     pz     px    dxy    dyz    dz2    dxz  x2-y2    tot
    1  0.004  0.001  0.014  0.002  0.000  0.000  0.000  0.000  0.000  0.020
    2  0.010  0.003  0.094  0.009  0.000  0.000  0.000  0.000  0.000  0.116
    3  0.008  0.003  0.078  0.009  0.000  0.000  0.000  0.000  0.000  0.097
    4  0.002  0.000  0.003  0.001  0.000  0.000  0.000  0.000  0.000  0.006
    5  0.010  0.000  0.003  0.000  0.010  0.000  0.166  0.000  0.003  0.193
    6  0.016  0.000  0.002  0.001  0.019  0.000  0.332  0.000  0.006  0.377
tot    0.049  0.007  0.192  0.022  0.029  0.000  0.498  0.001  0.010  0.809
 
band    19 # energy    3.54721665 # occ.  0.00000000
 
ion      s     py     pz     px    dxy    dyz    dz2    dxz  x2-y2    tot
    1  0.000  0.000  0.000  0.000  0.000  0.000  0.000  0.000  0.000  0.000
    2  0.000  0.000  0.000  0.001  0.000  0.000  0.000  0.000  0.000  0.002
    3  0.008  0.023  0.002  0.070  0.000  0.000  0.000  0.000  0.000  0.103
    4  0.014  0.047  0.003  0.143  0.000  0.000  0.000  0.000  0.000  0.209
    5  0.000  0.000  0.001  0.000  0.006  0.100  0.000  0.300  0.002  0.409
    6  0.000  0.000  0.000  0.000  0.001  0.000  0.000  0.000  0.000  0.002
tot    0.023  0.071  0.007  0.215  0.006  0.100  0.001  0.300  0.002  0.725
 
band    20 # energy    3.64598450 # occ.  0.00000000
 
ion      s     py     pz     px    dxy    dyz    dz2    dxz  x2-y2    tot
    1  0.000  0.000  0.000  0.002  0.000  0.000  0.000  0.000  0.000  0.003
    2  0.003  0.002  0.002  0.008  0.000  0.000  0.000  0.000  0.000  0.015
    3  0.007  0.054  0.006  0.169  0.000  0.000  0.000  0.000  0.000  0.236
    4  0.004  0.034  0.002  0.101  0.000  0.000  0.000  0.000  0.000  0.140
    5  0.001  0.004  0.000  0.011  0.220  0.002  0.026  0.007  0.072  0.342
    6  0.001  0.000  0.000  0.000  0.009  0.000  0.001  0.001  0.002  0.015
tot    0.016  0.093  0.010  0.291  0.229  0.002  0.026  0.008  0.073  0.751
 
band    21 # energy    3.77885744 # occ.  0.00000000
 
ion      s     py     pz     px    dxy    dyz    dz2    dxz  x2-y2    tot
    1  0.000  0.003  0.000  0.001  0.000  0.000  0.000  0.000  0.000  0.004
    2  0.000  0.008  0.000  0.001  0.000  0.000  0.000  0.000  0.000  0.009
    3  0.000  0.196  0.000  0.064  0.000  0.000  0.000  0.000  0.000  0.260
    4  0.000  0.116  0.000  0.038  0.000  0.000  0.000  0.000  0.000  0.154
    5  0.000  0.014  0.000  0.004  0.075  0.006  0.000  0.002  0.229  0.330