<?xml version="1.0" encoding="ISO-8859-1"?>
<modeling>
 <generator>
  <i name="program" type="string">vasp </i>
  <i name="version" type="string">5.4.4.18Apr17-6-g9f103f2a35  </i>
  <i name="subversion" type="string">(build Jun 26 2021 01:31:14) complex            parallel </i>
  <i name="platform" type="string">LinuxIFC </i>
  <i name="date" type="string">2021 07 11 </i>
  <i name="time" type="string">12:46:12 </i>
 </generator>
 <incar>
  <i type="string" name="SYSTEM"> VaspCalc</i>
  <i type="int" name="ISTART">     1</i>
  <i type="string" name="PREC">med</i>
  <i type="string" name="ALGO"> Fast</i>
  <i type="int" name="ISPIN">     1</i>
  <i type="int" name="NELM">   400</i>
  <i type="int" name="NELMIN">     4</i>
  <i type="int" name="IBRION">    -1</i>
  <i name="EDIFF">      0.00000100</i>
  <i type="int" name="NSW">     0</i>
  <i name="ENCUT">    400.00000000</i>
  <i type="int" name="ISMEAR">     0</i>
  <i name="SIGMA">      0.10000000</i>
  <i type="int" name="NWRITE">     1</i>
  <i type="logical" name="LWAVE"> F  </i>
  <i type="logical" name="LCHARG"> T  </i>
  <i type="int" name="LORBIT">    11</i>
  <v type="int" name="KPOINT_BSE">    -1     0     0     0</v>
  <i type="int" name="NELM">   400</i>
 </incar>
 <structure name="primitive_cell" >
  <crystal>
   <varray name="basis" >
    <v>       3.18650000       0.00000000       0.00000000 </v>
    <v>      -1.59325000       2.75958995       0.00000000 </v>
    <v>       0.00000000       0.00000000      20.00000000 </v>
   </varray>
   <i name="volume">    175.86866745 </i>
   <varray name="rec_basis" >
    <v>       0.31382394       0.18118634       0.00000000 </v>
    <v>       0.00000000       0.36237268       0.00000000 </v>
    <v>       0.00000000       0.00000000       0.05000000 </v>
   </varray>
  </crystal>
  <varray name="positions" >
   <v>      -0.34097473       0.34587942      -0.30716366 </v>
   <v>      -0.00756185       0.01248506      -0.38539718 </v>
   <v>      -0.34094995       0.34586411      -0.46348819 </v>
   <v>      -0.00211927       0.00109173       0.38437599 </v>
   <v>      -0.33563222       0.33429416       0.30644433 </v>
   <v>      -0.00216680       0.00099507       0.22844737 </v>
  </varray>
 </structure>
 <varray name="primitive_index" >
  <v type="int" >        1 </v>
  <v type="int" >        6 </v>
  <v type="int" >        2 </v>
  <v type="int" >        3 </v>
  <v type="int" >        5 </v>
  <v type="int" >        4 </v>
 </varray>
 <kpoints>
  <generation param="Gamma">
   <v type="int" name="divisions">      11       11        1 </v>
   <v name="usershift">      0.00000000       0.00000000       0.00000000 </v>
   <v name="genvec1">      0.09090909      -0.00000000       0.00000000 </v>
   <v name="genvec2">      0.00000000       0.09090909       0.00000000 </v>
   <v name="genvec3">      0.00000000       0.00000000       1.00000000 </v>
   <v name="shift">      0.00000000       0.00000000       0.00000000 </v>
  </generation>
  <varray name="kpointlist" >
   <v>       0.00000000       0.00000000       0.00000000 </v>
   <v>       0.09090909       0.00000000       0.00000000 </v>
   <v>       0.18181818       0.00000000       0.00000000 </v>
   <v>       0.27272727       0.00000000       0.00000000 </v>
   <v>       0.36363636       0.00000000       0.00000000 </v>
   <v>       0.45454545      -0.00000000       0.00000000 </v>
   <v>       0.00000000       0.09090909       0.00000000 </v>
   <v>       0.09090909       0.09090909       0.00000000 </v>
   <v>       0.18181818       0.09090909       0.00000000 </v>
   <v>       0.27272727       0.09090909       0.00000000 </v>
   <v>       0.36363636       0.09090909       0.00000000 </v>
   <v>       0.45454545       0.09090909       0.00000000 </v>
   <v>      -0.45454545       0.09090909       0.00000000 </v>
   <v>      -0.36363636       0.09090909       0.00000000 </v>
   <v>      -0.27272727       0.09090909       0.00000000 </v>
   <v>      -0.18181818       0.09090909       0.00000000 </v>
   <v>      -0.09090909       0.09090909       0.00000000 </v>
   <v>       0.00000000       0.18181818       0.00000000 </v>
   <v>       0.09090909       0.18181818       0.00000000 </v>
   <v>       0.18181818       0.18181818       0.00000000 </v>
   <v>       0.27272727       0.18181818       0.00000000 </v>
   <v>       0.36363636       0.18181818       0.00000000 </v>
   <v>       0.45454545       0.18181818       0.00000000 </v>
   <v>      -0.45454545       0.18181818       0.00000000 </v>
   <v>      -0.36363636       0.18181818       0.00000000 </v>
   <v>      -0.27272727       0.18181818       0.00000000 </v>
   <v>      -0.18181818       0.18181818       0.00000000 </v>
   <v>      -0.09090909       0.18181818       0.00000000 </v>
   <v>       0.00000000       0.27272727       0.00000000 </v>
   <v>       0.09090909       0.27272727       0.00000000 </v>
   <v>       0.18181818       0.27272727       0.00000000 </v>
   <v>       0.27272727       0.27272727       0.00000000 </v>
   <v>       0.36363636       0.27272727       0.00000000 </v>
   <v>       0.45454545       0.27272727       0.00000000 </v>
   <v>      -0.45454545       0.27272727       0.00000000 </v>
   <v>      -0.36363636       0.27272727       0.00000000 </v>
   <v>      -0.27272727       0.27272727       0.00000000 </v>
   <v>      -0.18181818       0.27272727       0.00000000 </v>
   <v>      -0.09090909       0.27272727       0.00000000 </v>
   <v>       0.00000000       0.36363636       0.00000000 </v>
   <v>       0.09090909       0.36363636       0.00000000 </v>
   <v>       0.18181818       0.36363636       0.00000000 </v>
   <v>       0.27272727       0.36363636       0.00000000 </v>
   <v>       0.36363636       0.36363636       0.00000000 </v>
   <v>       0.45454545       0.36363636       0.00000000 </v>
   <v>      -0.45454545       0.36363636       0.00000000 </v>
   <v>      -0.36363636       0.36363636       0.00000000 </v>
   <v>      -0.27272727       0.36363636       0.00000000 </v>
   <v>      -0.18181818       0.36363636       0.00000000 </v>
   <v>      -0.09090909       0.36363636       0.00000000 </v>
   <v>       0.00000000       0.45454545       0.00000000 </v>
   <v>       0.09090909       0.45454545       0.00000000 </v>
   <v>       0.18181818       0.45454545       0.00000000 </v>
   <v>       0.27272727       0.45454545       0.00000000 </v>
   <v>       0.36363636       0.45454545       0.00000000 </v>
   <v>       0.45454545       0.45454545       0.00000000 </v>
   <v>      -0.45454545       0.45454545       0.00000000 </v>
   <v>      -0.36363636       0.45454545       0.00000000 </v>
   <v>      -0.27272727       0.45454545       0.00000000 </v>
   <v>      -0.18181818       0.45454545       0.00000000 </v>
   <v>      -0.09090909       0.45454545       0.00000000 </v>
  </varray>
  <varray name="weights" >
   <v>       0.00826446 </v>
   <v>       0.01652893 </v>
   <v>       0.01652893 </v>
   <v>       0.01652893 </v>
   <v>       0.01652893 </v>
   <v>       0.01652893 </v>
   <v>       0.01652893 </v>
   <v>       0.01652893 </v>
   <v>       0.01652893 </v>
   <v>       0.01652893 </v>
   <v>       0.01652893 </v>
   <v>       0.01652893 </v>
   <v>       0.01652893 </v>
   <v>       0.01652893 </v>
   <v>       0.01652893 </v>
   <v>       0.01652893 </v>
   <v>       0.01652893 </v>
   <v>       0.01652893 </v>
   <v>       0.01652893 </v>
   <v>       0.01652893 </v>
   <v>       0.01652893 </v>
   <v>       0.01652893 </v>
   <v>       0.01652893 </v>
   <v>       0.01652893 </v>
   <v>       0.01652893 </v>
   <v>       0.01652893 </v>
   <v>       0.01652893 </v>
   <v>       0.01652893 </v>
   <v>       0.01652893 </v>
   <v>       0.01652893 </v>
   <v>       0.01652893 </v>
   <v>       0.01652893 </v>
   <v>       0.01652893 </v>
   <v>       0.01652893 </v>
   <v>       0.01652893 </v>
   <v>       0.01652893 </v>
   <v>       0.01652893 </v>
   <v>       0.01652893 </v>
   <v>       0.01652893 </v>
   <v>       0.01652893 </v>
   <v>       0.01652893 </v>
   <v>       0.01652893 </v>
   <v>       0.01652893 </v>
   <v>       0.01652893 </v>
   <v>       0.01652893 </v>
   <v>       0.01652893 </v>
   <v>       0.01652893 </v>
   <v>       0.01652893 </v>
   <v>       0.01652893 </v>
   <v>       0.01652893 </v>
   <v>       0.01652893 </v>
   <v>       0.01652893 </v>
   <v>       0.01652893 </v>
   <v>       0.01652893 </v>
   <v>       0.01652893 </v>
   <v>       0.01652893 </v>
   <v>       0.01652893 </v>
   <v>       0.01652893 </v>
   <v>       0.01652893 </v>
   <v>       0.01652893 </v>
   <v>       0.01652893 </v>
  </varray>
 </kpoints>
 <parameters>
  <separator name="general" >
   <i type="string" name="SYSTEM">VaspCalc</i>
   <i type="logical" name="LCOMPAT"> F  </i>
  </separator>
  <separator name="electronic" >
   <i type="string" name="PREC">med</i>
   <i name="ENMAX">    400.00000000</i>
   <i name="ENAUG">    373.43800000</i>
   <i name="EDIFF">      0.00000100</i>
   <i type="int" name="IALGO">    68</i>
   <i type="int" name="IWAVPR">    10</i>
   <i type="int" name="NBANDS">    24</i>
   <i name="NELECT">     36.00000000</i>
   <i type="int" name="TURBO">     0</i>
   <i type="int" name="IRESTART">     0</i>
   <i type="int" name="NREBOOT">     0</i>
   <i type="int" name="NMIN">     0</i>
   <i name="EREF">      0.00000000</i>
   <separator name="electronic smearing" >
    <i type="int" name="ISMEAR">     0</i>
    <i name="SIGMA">      0.10000000</i>
    <i name="KSPACING">      0.50000000</i>
    <i type="logical" name="KGAMMA"> T  </i>
   </separator>
   <separator name="electronic projectors" >
    <i type="logical" name="LREAL"> F  </i>
    <v name="ROPT">      0.00000000      0.00000000      0.00000000</v>
    <i type="int" name="LMAXPAW">  -100</i>
    <i type="int" name="LMAXMIX">     2</i>
    <i type="logical" name="NLSPLINE"> F  </i>
   </separator>
   <separator name="electronic startup" >
    <i type="int" name="ISTART">     0</i>
    <i type="int" name="ICHARG">     2</i>
    <i type="int" name="INIWAV">     1</i>
   </separator>
   <separator name="electronic spin" >
    <i type="int" name="ISPIN">     1</i>
    <i type="logical" name="LNONCOLLINEAR"> F  </i>
    <v name="MAGMOM">      1.00000000      1.00000000      1.00000000      1.00000000      1.00000000      1.00000000</v>
    <i name="NUPDOWN">     -1.00000000</i>
    <i type="logical" name="LSORBIT"> F  </i>
    <v name="SAXIS">      0.00000000      0.00000000      1.00000000</v>
    <i type="logical" name="LSPIRAL"> F  </i>
    <v name="QSPIRAL">      0.00000000      0.00000000      0.00000000</v>
    <i type="logical" name="LZEROZ"> F  </i>
   </separator>
   <separator name="electronic exchange-correlation" >
    <i type="logical" name="LASPH"> F  </i>
    <i type="logical" name="LMETAGGA"> F  </i>
   </separator>
   <separator name="electronic convergence" >
    <i type="int" name="NELM">   400</i>
    <i type="int" name="NELMDL">     0</i>
    <i type="int" name="NELMIN">     4</i>
    <i name="ENINI">    400.00000000</i>
    <separator name="electronic convergence detail" >
     <i type="logical" name="LDIAG"> T  </i>
     <i type="logical" name="LSUBROT"> F  </i>
     <i name="WEIMIN">      0.00000000</i>
     <i name="EBREAK">      0.00000001</i>
     <i name="DEPER">      0.30000000</i>
     <i type="int" name="NRMM">     4</i>
     <i name="TIME">      0.40000000</i>
    </separator>
   </separator>
   <separator name="electronic mixer" >
    <i name="AMIX">      0.40000000</i>
    <i name="BMIX">      1.00000000</i>
    <i name="AMIN">      0.10000000</i>
    <i name="AMIX_MAG">      1.60000000</i>
    <i name="BMIX_MAG">      1.00000000</i>
    <separator name="electronic mixer details" >
     <i type="int" name="IMIX">     4</i>
     <i type="logical" name="MIXFIRST"> F  </i>
     <i type="int" name="MAXMIX">   -45</i>
     <i name="WC">    100.00000000</i>
     <i type="int" name="INIMIX">     1</i>
     <i type="int" name="MIXPRE">     1</i>
     <i type="int" name="MREMOVE">     5</i>
    </separator>
   </separator>
   <separator name="electronic dipolcorrection" >
    <i type="logical" name="LDIPOL"> F  </i>
    <i type="logical" name="LMONO"> F  </i>
    <i type="int" name="IDIPOL">     0</i>
    <i name="EPSILON">      1.00000000</i>
    <v name="DIPOL">   -100.00000000   -100.00000000   -100.00000000</v>
    <i name="EFIELD">      0.00000000</i>
   </separator>
  </separator>
  <separator name="grids" >
   <i type="int" name="NGX">    16</i>
   <i type="int" name="NGY">    16</i>
   <i type="int" name="NGZ">    98</i>
   <i type="int" name="NGXF">    20</i>
   <i type="int" name="NGYF">    20</i>
   <i type="int" name="NGZF">   126</i>
   <i type="logical" name="ADDGRID"> F  </i>
  </separator>
  <separator name="ionic" >
   <i type="int" name="NSW">     0</i>
   <i type="int" name="IBRION">    -1</i>
   <i type="int" name="MDALGO">     0</i>
   <i type="int" name="ISIF">     2</i>
   <i name="PSTRESS">      0.00000000</i>
   <i name="EDIFFG">      0.00001000</i>
   <i type="int" name="NFREE">     0</i>
   <i name="POTIM">      0.50000000</i>
   <i name="SMASS">     -3.00000000</i>
   <i name="SCALEE">      1.00000000</i>
  </separator>
  <separator name="ionic md" >
   <i name="TEBEG">      0.00010000</i>
   <i name="TEEND">      0.00010000</i>
   <i type="int" name="NBLOCK">     1</i>
   <i type="int" name="KBLOCK">     1</i>
   <i type="int" name="NPACO">   256</i>
   <i name="APACO">     16.00000000</i>
  </separator>
  <separator name="symmetry" >
   <i type="int" name="ISYM">     2</i>
   <i name="SYMPREC">      0.00001000</i>
  </separator>
  <separator name="dos" >
   <i type="int" name="LORBIT">    11</i>
   <v name="RWIGS">     -1.00000000     -1.00000000     -1.00000000</v>
   <i type="int" name="NEDOS">   301</i>
   <i name="EMIN">     10.00000000</i>
   <i name="EMAX">    -10.00000000</i>
   <i name="EFERMI">      0.00000000</i>
  </separator>
  <separator name="writing" >
   <i type="int" name="NWRITE">     1</i>
   <i type="logical" name="LWAVE"> F  </i>
   <i type="logical" name="LDOWNSAMPLE"> F  </i>
   <i type="logical" name="LCHARG"> T  </i>
   <i type="logical" name="LPARD"> F  </i>
   <i type="logical" name="LVTOT"> F  </i>
   <i type="logical" name="LVHAR"> F  </i>
   <i type="logical" name="LELF"> F  </i>
   <i type="logical" name="LOPTICS"> F  </i>
   <v name="STM">      0.00000000      0.00000000      0.00000000      0.00000000      0.00000000      0.00000000      0.00000000</v>
  </separator>
  <separator name="performance" >
   <i type="int" name="NPAR">     4</i>
   <i type="int" name="NSIM">     4</i>
   <i type="int" name="NBLK">    -1</i>
   <i type="logical" name="LPLANE"> T  </i>
   <i type="logical" name="LSCALAPACK"> T  </i>
   <i type="logical" name="LSCAAWARE"> F  </i>
   <i type="logical" name="LSCALU"> F  </i>
   <i type="logical" name="LASYNC"> F  </i>
   <i type="logical" name="LORBITALREAL"> F  </i>
  </separator>
  <separator name="miscellaneous" >
   <i type="int" name="IDIOT">     3</i>
   <i type="int" name="ISPECIAL">     0</i>
   <i type="logical" name="LMUSIC"> F  </i>
   <v name="POMASS">     32.06600000     95.94000000    183.85000000</v>
   <v name="DARWINR">      0.00000000      0.00000000      0.00000000</v>
   <v name="DARWINV">      1.00000000      1.00000000      1.00000000</v>
   <i type="logical" name="LCORR"> T  </i>
  </separator>
  <i type="logical" name="GGA_COMPAT"> T  </i>
  <i type="logical" name="LBERRY"> F  </i>
  <i type="int" name="ICORELEVEL">     0</i>
  <i type="logical" name="LDAU"> F  </i>
  <i type="int" name="I_CONSTRAINED_M">     0</i>
  <separator name="electronic exchange-correlation" >
   <i type="string" name="GGA">--</i>
   <i type="int" name="VOSKOWN">     0</i>
   <i type="logical" name="LHFCALC"> F  </i>
   <i type="string" name="PRECFOCK"></i>
   <i type="logical" name="LSYMGRAD"> F  </i>
   <i type="logical" name="LHFONE"> F  </i>
   <i type="logical" name="LRHFCALC"> F  </i>
   <i type="logical" name="LTHOMAS"> F  </i>
   <i type="logical" name="LMODELHF"> F  </i>
   <i name="ENCUT4O">     -1.00000000</i>
   <i type="int" name="EXXOEP">     0</i>
   <i type="int" name="FOURORBIT">     0</i>
   <i name="AEXX">      0.00000000</i>
   <i name="HFALPHA">      0.00000000</i>
   <i name="MCALPHA">      0.00000000</i>
   <i name="ALDAX">      1.00000000</i>
   <i name="AGGAX">      1.00000000</i>
   <i name="ALDAC">      1.00000000</i>
   <i name="AGGAC">      1.00000000</i>
   <i type="int" name="NKREDX">     1</i>
   <i type="int" name="NKREDY">     1</i>
   <i type="int" name="NKREDZ">     1</i>
   <i type="logical" name="SHIFTRED"> F  </i>
   <i type="logical" name="ODDONLY"> F  </i>
   <i type="logical" name="EVENONLY"> F  </i>
   <i type="int" name="LMAXFOCK">     0</i>
   <i type="int" name="NMAXFOCKAE">     0</i>
   <i type="logical" name="LFOCKAEDFT"> F  </i>
   <i name="HFSCREEN">      0.00000000</i>
   <i name="HFSCREENC">      0.00000000</i>
   <i type="int" name="NBANDSGWLOW">     0</i>
  </separator>
  <separator name="vdW DFT" >
   <i type="logical" name="LUSE_VDW"> F  </i>
   <i name="Zab_VDW">     -0.84910000</i>
   <i name="PARAM1">      0.12340000</i>
   <i name="PARAM2">      1.00000000</i>
   <i name="PARAM3">      0.00000000</i>
  </separator>
  <separator name="model GW" >
   <i type="int" name="MODEL_GW">     0</i>
   <i name="MODEL_EPS0">     17.58686674</i>
   <i name="MODEL_ALPHA">      1.00000000</i>
  </separator>
  <separator name="linear response parameters" >
   <i type="logical" name="LEPSILON"> F  </i>
   <i type="logical" name="LRPA"> F  </i>
   <i type="logical" name="LNABLA"> F  </i>
   <i type="logical" name="LVEL"> F  </i>
   <i type="int" name="KINTER">     0</i>
   <i name="CSHIFT">      0.10000000</i>
   <i name="OMEGAMAX">     -1.00000000</i>
   <i name="DEG_THRESHOLD">      0.00200000</i>
   <i name="RTIME">     -0.10000000</i>
   <i name="WPLASMAI">      0.00000000</i>
   <v name="DFIELD">      0.00000000      0.00000000      0.00000000</v>
   <v name="WPLASMA">      0.00000000      0.00000000      0.00000000      0.00000000      0.00000000      0.00000000      0.00000000      0.00000000      0.00000000</v>
  </separator>
  <separator name="orbital magnetization" >
   <i type="logical" name="NUCIND"> F  </i>
   <v name="MAGPOS">      0.00000000      0.00000000      0.00000000</v>
   <i type="logical" name="LNICSALL"> T  </i>
   <i type="logical" name="ORBITALMAG"> F  </i>
   <i type="logical" name="LMAGBLOCH"> F  </i>
   <i type="logical" name="LCHIMAG"> F  </i>
   <i type="logical" name="LGAUGE"> T  </i>
   <i type="int" name="MAGATOM">     0</i>
   <v name="MAGDIPOL">      0.00000000      0.00000000      0.00000000</v>
   <v name="AVECCONST">      0.00000000      0.00000000      0.00000000</v>
  </separator>
  <separator name="response functions" >
   <i type="logical" name="LADDER"> F  </i>
   <i type="logical" name="LRPAFORCE"> F  </i>
   <i type="logical" name="LFXC"> F  </i>
   <i type="logical" name="LHARTREE"> T  </i>
   <i type="int" name="IBSE">     0</i>
   <v type="int" name="KPOINT">    -1     0     0     0</v>
   <i type="logical" name="LTCTE"> F  </i>
   <i type="logical" name="LTETE"> F  </i>
   <i type="logical" name="LTRIPLET"> F  </i>
   <i type="logical" name="LFXCEPS"> F  </i>
   <i type="logical" name="LFXHEG"> F  </i>
   <i type="int" name="NATURALO">     2</i>
   <i type="logical" name="L2ORDER"> F  </i>
   <i type="logical" name="LMP2LT"> F  </i>
   <i type="logical" name="LUSEW"> F  </i>
   <i name="ENCUTGW">     -2.00000000</i>
   <i name="ENCUTGWSOFT">     -2.00000000</i>
   <i name="ENCUTLF">     -1.00000000</i>
   <i type="int" name="LMAXMP2">    -1</i>
   <i name="SCISSOR">      0.00000000</i>
   <i type="int" name="NOMEGA">     0</i>
   <i type="int" name="NOMEGAR">     0</i>
   <i type="int" name="NBANDSGW">    -1</i>
   <i type="int" name="NBANDSO">    -1</i>
   <i type="int" name="NBANDSV">    -1</i>
   <i type="int" name="NELM">   400</i>
   <i type="int" name="NELMHF">     1</i>
   <i type="int" name="DIM">     3</i>
   <i type="int" name="ANTIRES">     0</i>
   <i name="OMEGAMAX">    -30.00000000</i>
   <i name="OMEGAMIN">    -30.00000000</i>
   <i name="OMEGATL">   -200.00000000</i>
   <i type="int" name="OMEGAGRID">   140</i>
   <i name="CSHIFT">     -0.10000000</i>
   <i type="logical" name="SELFENERGY"> F  </i>
   <i type="logical" name="LSPECTRAL"> F  </i>
   <i type="logical" name="LSPECTRALGW"> F  </i>
   <i type="logical" name="LSINGLES"> F  </i>
   <i type="logical" name="LFERMIGW"> F  </i>
   <i type="logical" name="ODDONLYGW"> F  </i>
   <i type="logical" name="EVENONLYGW"> F  </i>
   <i type="int" name="NKREDLFX">     1</i>
   <i type="int" name="NKREDLFY">     1</i>
   <i type="int" name="NKREDLFZ">     1</i>
   <i type="int" name="MAXMEM">  2800</i>
   <i type="int" name="TELESCOPE">     0</i>
   <i type="int" name="TAUPAR">     1</i>
   <i type="int" name="OMEGAPAR">    -1</i>
   <i name="LAMBDA">      1.00000000</i>
  </separator>
  <separator name="External order field" >
   <i name="OFIELD_KAPPA">      0.00000000</i>
   <v name="OFIELD_K">      0.00000000      0.00000000      0.00000000</v>
   <i name="OFIELD_Q6_NEAR">      0.00000000</i>
   <i name="OFIELD_Q6_FAR">      0.00000000</i>
   <i name="OFIELD_A">      0.00000000</i>
  </separator>
 </parameters>
 <atominfo>
  <atoms>       6 </atoms>
  <types>       3 </types>
  <array name="atoms" >
   <dimension dim="1">ion</dimension>
   <field type="string">element</field>
   <field type="int">atomtype</field>
   <set>
    <rc><c>S </c><c>   1</c></rc>
    <rc><c>S </c><c>   1</c></rc>
    <rc><c>S </c><c>   1</c></rc>
    <rc><c>S </c><c>   1</c></rc>
    <rc><c>Mo</c><c>   2</c></rc>
    <rc><c>W </c><c>   3</c></rc>
   </set>
  </array>
  <array name="atomtypes" >
   <dimension dim="1">type</dimension>
   <field type="int">atomspertype</field>
   <field type="string">element</field>
   <field>mass</field>
   <field>valence</field>
   <field type="string">pseudopotential</field>
   <set>
    <rc><c>   4</c><c>S </c><c>     32.06600000</c><c>      6.00000000</c><c>  PAW_PBE S 17Jan2003                   </c></rc>
    <rc><c>   1</c><c>Mo</c><c>     95.94000000</c><c>      6.00000000</c><c> PAW_PBE Mo 08Apr2002                   </c></rc>
    <rc><c>   1</c><c>W </c><c>    183.85000000</c><c>      6.00000000</c><c> PAW_PBE W 08Apr2002                    </c></rc>
   </set>
  </array>
 </atominfo>
 <structure name="initialpos" >
  <crystal>
   <varray name="basis" >
    <v>       3.18650000       0.00000000       0.00000000 </v>
    <v>      -1.59325000       2.75958995       0.00000000 </v>
    <v>       0.00000000       0.00000000      20.00000000 </v>
   </varray>
   <i name="volume">    175.86866745 </i>
   <varray name="rec_basis" >
    <v>       0.31382394       0.18118634       0.00000000 </v>
    <v>       0.00000000       0.36237268       0.00000000 </v>
    <v>       0.00000000       0.00000000       0.05000000 </v>
   </varray>
  </crystal>
  <varray name="positions" >
   <v>       0.65902527       0.34587942       0.69283634 </v>
   <v>       0.65905005       0.34586411       0.53651181 </v>
   <v>       0.99788073       0.00109173       0.38437599 </v>
   <v>       0.99783320       0.00099507       0.22844737 </v>
   <v>       0.66436778       0.33429416       0.30644433 </v>
   <v>       0.99243815       0.01248506       0.61460282 </v>
  </varray>
  <varray name="selective"  type="logical" >
   <v type="logical" >  T  T  T </v>
   <v type="logical" >  T  T  T </v>
   <v type="logical" >  T  T  T </v>
   <v type="logical" >  T  T  T </v>
   <v type="logical" >  T  T  T </v>
   <v type="logical" >  T  T  T </v>
  </varray>
  <nose>
   <v>      -3.00000000       0.00000000       0.00010000       0.00010000 </v>
  </nose>
 </structure>
 <calculation>
  <scstep>
   <time name="dav">    0.39    0.39</time>
   <time name="total">    0.40    0.40</time>
   <energy>
    <i name="alphaZ">     68.88242450 </i>
    <i name="ewald">   2358.05440295 </i>
    <i name="hartreedc">  -3919.05446712 </i>
    <i name="XCdc">    -59.12757760 </i>
    <i name="pawpsdc">    788.69199195 </i>
    <i name="pawaedc">   -645.62869777 </i>
    <i name="eentropy">     -0.01193575 </i>
    <i name="bandstr">     85.59566938 </i>
    <i name="atom">   1529.39674839 </i>
    <i name="e_fr_energy">    206.79855895 </i>
    <i name="e_wo_entrp">    206.81049470 </i>
    <i name="e_0_energy">    206.80452682 </i>
   </energy>
  </scstep>
  <scstep>
   <time name="dav">    0.49    0.49</time>
   <time name="total">    0.49    0.49</time>
   <energy>
    <i name="e_fr_energy">    -28.72786190 </i>
    <i name="e_wo_entrp">    -28.72786190 </i>
    <i name="e_0_energy">    -28.72786190 </i>
   </energy>
  </scstep>
  <scstep>
   <time name="dav">    0.48    0.48</time>
   <time name="total">    0.48    0.48</time>
   <energy>
    <i name="e_fr_energy">    -47.96761145 </i>
    <i name="e_wo_entrp">    -47.96761145 </i>
    <i name="e_0_energy">    -47.96761145 </i>
   </energy>
  </scstep>
  <scstep>
   <time name="dav">    0.49    0.49</time>
   <time name="total">    0.49    0.49</time>
   <energy>
    <i name="e_fr_energy">    -48.51433467 </i>
    <i name="e_wo_entrp">    -48.51433467 </i>
    <i name="e_0_energy">    -48.51433467 </i>
   </energy>
  </scstep>
  <scstep>
   <time name="dav">    0.48    0.48</time>
   <time name="total">    0.50    0.50</time>
   <energy>
    <i name="e_fr_energy">    -48.53040231 </i>
    <i name="e_wo_entrp">    -48.53040231 </i>
    <i name="e_0_energy">    -48.53040231 </i>
   </energy>
  </scstep>
  <scstep>
   <time name="diag">    0.10    0.10</time>
   <time name="diis">    0.21    0.21</time>
   <time name="orth">    0.01    0.01</time>
   <time name="total">    0.34    0.34</time>
   <energy>
    <i name="e_fr_energy">    -46.08736298 </i>
    <i name="e_wo_entrp">    -46.08735893 </i>
    <i name="e_0_energy">    -46.08736096 </i>
   </energy>
  </scstep>
  <scstep>
   <time name="diag">    0.10    0.10</time>
   <time name="diis">    0.22    0.22</time>
   <time name="orth">    0.01    0.01</time>
   <time name="total">    0.35    0.35</time>
   <energy>
    <i name="e_fr_energy">    -45.57373869 </i>
    <i name="e_wo_entrp">    -45.57373869 </i>
    <i name="e_0_energy">    -45.57373869 </i>
   </energy>
  </scstep>
  <scstep>
   <time name="diag">    0.10    0.10</time>
   <time name="diis">    0.22    0.22</time>
   <time name="orth">    0.01    0.01</time>
   <time name="total">    0.35    0.36</time>
   <energy>
    <i name="e_fr_energy">    -45.48414398 </i>
    <i name="e_wo_entrp">    -45.48414398 </i>
    <i name="e_0_energy">    -45.48414398 </i>
   </energy>
  </scstep>
  <scstep>
   <time name="diag">    0.10    0.10</time>
   <time name="diis">    0.25    0.25</time>
   <time name="orth">    0.01    0.01</time>
   <time name="total">    0.38    0.38</time>
   <energy>
    <i name="e_fr_energy">    -45.47386990 </i>
    <i name="e_wo_entrp">    -45.47386990 </i>
    <i name="e_0_energy">    -45.47386990 </i>
   </energy>
  </scstep>
  <scstep>
   <time name="diag">    0.11    0.11</time>
   <time name="diis">    0.24    0.24</time>
   <time name="orth">    0.01    0.01</time>
   <time name="total">    0.38    0.38</time>
   <energy>
    <i name="e_fr_energy">    -45.47142756 </i>
    <i name="e_wo_entrp">    -45.47142756 </i>
    <i name="e_0_energy">    -45.47142756 </i>
   </energy>
  </scstep>
  <scstep>
   <time name="diag">    0.10    0.10</time>
   <time name="diis">    0.25    0.25</time>
   <time name="orth">    0.01    0.01</time>
   <time name="total">    0.38    0.38</time>
   <energy>
    <i name="e_fr_energy">    -45.47058332 </i>
    <i name="e_wo_entrp">    -45.47058332 </i>
    <i name="e_0_energy">    -45.47058332 </i>
   </energy>
  </scstep>
  <scstep>
   <time name="diag">    0.10    0.10</time>
   <time name="diis">    0.25    0.25</time>
   <time name="orth">    0.01    0.01</time>
   <time name="total">    0.38    0.38</time>
   <energy>
    <i name="e_fr_energy">    -45.47043258 </i>
    <i name="e_wo_entrp">    -45.47043258 </i>
    <i name="e_0_energy">    -45.47043258 </i>
   </energy>
  </scstep>
  <scstep>
   <time name="diag">    0.10    0.10</time>
   <time name="diis">    0.25    0.25</time>
   <time name="orth">    0.01    0.01</time>
   <time name="total">    0.38    0.38</time>
   <energy>
    <i name="e_fr_energy">    -45.47040549 </i>
    <i name="e_wo_entrp">    -45.47040549 </i>
    <i name="e_0_energy">    -45.47040549 </i>
   </energy>
  </scstep>
  <scstep>
   <time name="diag">    0.10    0.10</time>
   <time name="diis">    0.25    0.25</time>
   <time name="orth">    0.01    0.01</time>
   <time name="total">    0.38    0.38</time>
   <energy>
    <i name="e_fr_energy">    -45.47056868 </i>
    <i name="e_wo_entrp">    -45.47056868 </i>
    <i name="e_0_energy">    -45.47056868 </i>
   </energy>
  </scstep>
  <scstep>
   <time name="diag">    0.10    0.10</time>
   <time name="diis">    0.24    0.24</time>
   <time name="orth">    0.01    0.01</time>
   <time name="total">    0.38    0.38</time>
   <energy>
    <i name="e_fr_energy">    -45.47067897 </i>
    <i name="e_wo_entrp">    -45.47067897 </i>
    <i name="e_0_energy">    -45.47067897 </i>
   </energy>
  </scstep>
  <scstep>
   <time name="diag">    0.10    0.10</time>
   <time name="diis">    0.24    0.24</time>
   <time name="orth">    0.01    0.01</time>
   <time name="total">    0.37    0.37</time>
   <energy>
    <i name="e_fr_energy">    -45.47077469 </i>
    <i name="e_wo_entrp">    -45.47077469 </i>
    <i name="e_0_energy">    -45.47077469 </i>
   </energy>
  </scstep>
  <scstep>
   <time name="diag">    0.10    0.10</time>
   <time name="diis">    0.24    0.24</time>
   <time name="orth">    0.01    0.01</time>
   <time name="total">    0.37    0.37</time>
   <energy>
    <i name="e_fr_energy">    -45.47080484 </i>
    <i name="e_wo_entrp">    -45.47080484 </i>
    <i name="e_0_energy">    -45.47080484 </i>
   </energy>
  </scstep>
  <scstep>
   <time name="diag">    0.10    0.10</time>
   <time name="diis">    0.19    0.19</time>
   <time name="orth">    0.01    0.01</time>
   <time name="total">    0.32    0.32</time>
   <energy>
    <i name="e_fr_energy">    -45.47081547 </i>
    <i name="e_wo_entrp">    -45.47081547 </i>
    <i name="e_0_energy">    -45.47081547 </i>
   </energy>
  </scstep>
  <scstep>
   <time name="diag">    0.11    0.11</time>
   <time name="diis">    0.17    0.17</time>
   <time name="orth">    0.01    0.01</time>
   <time name="total">    0.31    0.31</time>
   <energy>
    <i name="e_fr_energy">    -45.47081732 </i>
    <i name="e_wo_entrp">    -45.47081732 </i>
    <i name="e_0_energy">    -45.47081732 </i>
   </energy>
  </scstep>
  <scstep>
   <time name="diag">    0.10    0.10</time>
   <time name="diis">    0.15    0.15</time>
   <time name="orth">    0.01    0.01</time>
   <time name="total">    0.27    0.27</time>
   <energy>
    <i name="alphaZ">     68.88242450 </i>
    <i name="ewald">   2358.05440295 </i>
    <i name="hartreedc">  -3933.95577255 </i>
    <i name="XCdc">    -56.81119375 </i>
    <i name="pawpsdc">    931.06653528 </i>
    <i name="pawaedc">   -791.47087827 </i>
    <i name="eentropy">     -0.00000000 </i>
    <i name="bandstr">   -150.63308419 </i>
    <i name="atom">   1529.39674839 </i>
    <i name="e_fr_energy">    -45.47081765 </i>
    <i name="e_wo_entrp">    -45.47081765 </i>
    <i name="e_0_energy">    -45.47081765 </i>
   </energy>
  </scstep>
  <structure>
   <crystal>
    <varray name="basis" >
     <v>       3.18650000       0.00000000       0.00000000 </v>
     <v>      -1.59325000       2.75958995       0.00000000 </v>
     <v>       0.00000000       0.00000000      20.00000000 </v>
    </varray>
    <i name="volume">    175.86866745 </i>
    <varray name="rec_basis" >
     <v>       0.31382394       0.18118634       0.00000000 </v>
     <v>       0.00000000       0.36237268       0.00000000 </v>
     <v>       0.00000000       0.00000000       0.05000000 </v>
    </varray>
   </crystal>
   <varray name="positions" >
    <v>       0.65902527       0.34587942       0.69283634 </v>
    <v>       0.65905005       0.34586411       0.53651181 </v>
    <v>       0.99788073       0.00109173       0.38437599 </v>
    <v>       0.99783320       0.00099507       0.22844737 </v>
    <v>       0.66436778       0.33429416       0.30644433 </v>
    <v>       0.99243815       0.01248506       0.61460282 </v>
   </varray>
  </structure>
  <varray name="forces" >
   <v>       0.00316649      -0.00157294       0.00104592 </v>
   <v>       0.00561070      -0.00484704       0.00664884 </v>
   <v>      -0.00738815       0.00021697      -0.00294364 </v>
   <v>      -0.00323241      -0.00141998      -0.00279953 </v>
   <v>       0.00591497       0.00605239       0.00115529 </v>
   <v>      -0.00407160       0.00157060      -0.00310687 </v>
  </varray>
  <varray name="stress" >
   <v>      -0.75633789       0.10457848       0.20593160 </v>
   <v>       0.10457849      -0.64036359      -0.21633981 </v>
   <v>       0.20593159      -0.21633981      -1.17114848 </v>
  </varray>
  <energy>
   <i name="e_fr_energy">    -47.16299378 </i>
   <i name="e_wo_entrp">    -47.16299378 </i>
   <i name="e_0_energy">     -0.00000000 </i>
  </energy>
  <time name="totalsc">    8.16    8.19</time>
  <eigenvalues>
   <array>
    <dimension dim="1">band</dimension>
    <dimension dim="2">kpoint</dimension>
    <dimension dim="3">spin</dimension>
    <field>eigene</field>
    <field>occ</field>
    <set>
     <set comment="spin 1">
      <set comment="kpoint 1">
       <r>  -13.6457    1.0000 </r>
       <r>  -13.1527    1.0000 </r>
       <r>  -12.1071    1.0000 </r>
       <r>  -11.8679    1.0000 </r>
       <r>   -5.3440    1.0000 </r>
       <r>   -4.5950    1.0000 </r>
       <r>   -1.7686    1.0000 </r>
       <r>   -1.7680    1.0000 </r>
       <r>   -1.7036    1.0000 </r>
       <r>   -1.7027    1.0000 </r>
       <r>   -1.4006    1.0000 </r>
       <r>   -0.5909    1.0000 </r>
       <r>   -0.5870    1.0000 </r>
       <r>   -0.5278    1.0000 </r>
       <r>   -0.5252    1.0000 </r>
       <r>   -0.3481    1.0000 </r>
       <r>    0.8245    1.0000 </r>
       <r>    1.4919    1.0000 </r>
       <r>    3.6873    0.0000 </r>
       <r>    3.6915    0.0000 </r>
       <r>    3.9141    0.0000 </r>
       <r>    3.9247    0.0000 </r>
       <r>    3.9973    0.0000 </r>
       <r>    4.1052    0.0000 </r>
      </set>
      <set comment="kpoint 2">
       <r>  -13.5153    1.0000 </r>
       <r>  -13.0371    1.0000 </r>
       <r>  -12.0502    1.0000 </r>
       <r>  -11.8164    1.0000 </r>
       <r>   -5.1896    1.0000 </r>
       <r>   -4.4590    1.0000 </r>
       <r>   -2.1123    1.0000 </r>
       <r>   -1.9657    1.0000 </r>
       <r>   -1.7272    1.0000 </r>
       <r>   -1.6367    1.0000 </r>
       <r>   -1.5762    1.0000 </r>
       <r>   -1.1628    1.0000 </r>
       <r>   -0.7796    1.0000 </r>
       <r>   -0.7333    1.0000 </r>
       <r>   -0.4048    1.0000 </r>
       <r>    0.0005    1.0000 </r>
       <r>    0.7868    1.0000 </r>
       <r>    1.3057    1.0000 </r>
       <r>    3.5472    0.0000 </r>
       <r>    3.6460    0.0000 </r>
       <r>    3.7789    0.0000 </r>
       <r>    3.8718    0.0000 </r>
       <r>    3.8895    0.0000 </r>
       <r>    3.9425    0.0000 </r>
      </set>
      <set comment="kpoint 3">
       <r>  -13.1463    1.0000 </r>
       <r>  -12.7107    1.0000 </r>
       <r>  -11.8904    1.0000 </r>
       <r>  -11.6720    1.0000 </r>
       <r>   -4.7880    1.0000 </r>
       <r>   -4.1339    1.0000 </r>
       <r>   -2.8785    1.0000 </r>
       <r>   -2.5488    1.0000 </r>
       <r>   -2.3214    1.0000 </r>
       <r>   -1.9312    1.0000 </r>
       <r>   -1.2859    1.0000 </r>
       <r>   -1.2327    1.0000 </r>
       <r>   -1.2112    1.0000 </r>
       <r>   -1.1925    1.0000 </r>
       <r>   -0.4304    1.0000 </r>
       <r>   -0.0047    1.0000 </r>
       <r>    0.5520    1.0000 </r>
       <r>    0.7473    1.0000 </r>
       <r>    3.1702    0.0000 </r>
       <r>    3.4620    0.0000 </r>
       <r>    3.4765    0.0000 </r>
       <r>    3.6875    0.0000 </r>
       <r>    3.7916    0.0000 </r>
       <r>    4.0624    0.0000 </r>
      </set>
      <set comment="kpoint 4">
       <r>  -12.6088    1.0000 </r>
       <r>  -12.2383    1.0000 </r>
       <r>  -11.6622    1.0000 </r>
       <r>  -11.4664    1.0000 </r>
       <r>   -4.4746    1.0000 </r>
       <r>   -4.0500    1.0000 </r>
       <r>   -3.4919    1.0000 </r>
       <r>   -3.0599    1.0000 </r>
       <r>   -2.8752    1.0000 </r>
       <r>   -2.6809    1.0000 </r>
       <r>   -1.7113    1.0000 </r>
       <r>   -1.6629    1.0000 </r>
       <r>   -0.8153    1.0000 </r>
       <r>   -0.7482    1.0000 </r>
       <r>   -0.7071    1.0000 </r>
       <r>   -0.3505    1.0000 </r>
       <r>    0.0709    1.0000 </r>
       <r>    0.1685    1.0000 </r>
       <r>    3.0780    0.0000 </r>
       <r>    3.2022    0.0000 </r>
       <r>    3.5828    0.0000 </r>
       <r>    3.6305    0.0000 </r>
       <r>    4.0075    0.0000 </r>
       <r>    4.5687    0.0000 </r>
      </set>
      <set comment="kpoint 5">
       <r>  -12.0349    1.0000 </r>
       <r>  -11.7418    1.0000 </r>
       <r>  -11.4285    1.0000 </r>
       <r>  -11.2571    1.0000 </r>
       <r>   -4.8758    1.0000 </r>
       <r>   -4.4493    1.0000 </r>
       <r>   -3.6947    1.0000 </r>
       <r>   -3.4991    1.0000 </r>
       <r>   -3.2809    1.0000 </r>
       <r>   -2.9129    1.0000 </r>
       <r>   -2.0881    1.0000 </r>
       <r>   -2.0222    1.0000 </r>
       <r>   -0.9569    1.0000 </r>
       <r>   -0.6957    1.0000 </r>
       <r>   -0.4199    1.0000 </r>
       <r>   -0.3102    1.0000 </r>
       <r>   -0.1229    1.0000 </r>
       <r>    0.0334    1.0000 </r>
       <r>    3.0844    0.0000 </r>
       <r>    3.3167    0.0000 </r>
       <r>    3.6913    0.0000 </r>
       <r>    3.8806    0.0000 </r>
       <r>    4.4739    0.0000 </r>
       <r>    5.0573    0.0000 </r>
      </set>
      <set comment="kpoint 6">
       <r>  -11.6362    1.0000 </r>
       <r>  -11.4064    1.0000 </r>
       <r>  -11.2766    1.0000 </r>
       <r>  -11.1214    1.0000 </r>
       <r>   -5.3100    1.0000 </r>
       <r>   -4.7792    1.0000 </r>
       <r>   -4.0297    1.0000 </r>
       <r>   -3.8322    1.0000 </r>
       <r>   -3.3694    1.0000 </r>
       <r>   -3.0211    1.0000 </r>
       <r>   -2.2892    1.0000 </r>
       <r>   -2.2137    1.0000 </r>
       <r>   -1.0476    1.0000 </r>
       <r>   -0.8815    1.0000 </r>
       <r>   -0.2154    1.0000 </r>
       <r>   -0.0644    1.0000 </r>
       <r>    0.1047    1.0000 </r>
       <r>    0.2473    1.0000 </r>
       <r>    3.0974    0.0000 </r>
       <r>    3.5798    0.0000 </r>
       <r>    3.8676    0.0000 </r>
       <r>    4.2789    0.0000 </r>
       <r>    4.7309    0.0000 </r>
       <r>    5.2893    0.0000 </r>
      </set>
      <set comment="kpoint 7">
       <r>  -13.5153    1.0000 </r>
       <r>  -13.0372    1.0000 </r>
       <r>  -12.0502    1.0000 </r>
       <r>  -11.8164    1.0000 </r>
       <r>   -5.1896    1.0000 </r>
       <r>   -4.4590    1.0000 </r>
       <r>   -2.1123    1.0000 </r>
       <r>   -1.9663    1.0000 </r>
       <r>   -1.7268    1.0000 </r>
       <r>   -1.6366    1.0000 </r>
       <r>   -1.5756    1.0000 </r>
       <r>   -1.1616    1.0000 </r>
       <r>   -0.7819    1.0000 </r>
       <r>   -0.7337    1.0000 </r>
       <r>   -0.4040    1.0000 </r>
       <r>    0.0007    1.0000 </r>
       <r>    0.7870    1.0000 </r>
       <r>    1.3055    1.0000 </r>
       <r>    3.5448    0.0000 </r>
       <r>    3.6472    0.0000 </r>
       <r>    3.7797    0.0000 </r>
       <r>    3.8782    0.0000 </r>
       <r>    3.9204    0.0000 </r>
       <r>    3.9407    0.0000 </r>
      </set>
      <set comment="kpoint 8">
       <r>  -13.2653    1.0000 </r>
       <r>  -12.8160    1.0000 </r>
       <r>  -11.9416    1.0000 </r>
       <r>  -11.7183    1.0000 </r>
       <r>   -4.9063    1.0000 </r>
       <r>   -4.2215    1.0000 </r>
       <r>   -2.6517    1.0000 </r>
       <r>   -2.3775    1.0000 </r>
       <r>   -2.1136    1.0000 </r>
       <r>   -1.6480    1.0000 </r>
       <r>   -1.4104    1.0000 </r>
       <r>   -1.3518    1.0000 </r>
       <r>   -1.2445    1.0000 </r>
       <r>   -1.2040    1.0000 </r>
       <r>   -0.2535    1.0000 </r>
       <r>    0.1306    1.0000 </r>
       <r>    0.6513    1.0000 </r>
       <r>    0.9319    1.0000 </r>
       <r>    3.2553    0.0000 </r>
       <r>    3.3810    0.0000 </r>
       <r>    3.5583    0.0000 </r>
       <r>    3.6571    0.0000 </r>
       <r>    3.8382    0.0000 </r>
       <r>    3.9147    0.0000 </r>
      </set>
      <set comment="kpoint 9">
       <r>  -12.8101    1.0000 </r>
       <r>  -12.4148    1.0000 </r>
       <r>  -11.7459    1.0000 </r>
       <r>  -11.5416    1.0000 </r>
       <r>   -4.4898    1.0000 </r>
       <r>   -3.9547    1.0000 </r>
       <r>   -3.3387    1.0000 </r>
       <r>   -2.8609    1.0000 </r>
       <r>   -2.6169    1.0000 </r>
       <r>   -2.3327    1.0000 </r>
       <r>   -1.8788    1.0000 </r>
       <r>   -1.7646    1.0000 </r>
       <r>   -1.0974    1.0000 </r>
       <r>   -1.0190    1.0000 </r>
       <r>   -0.3027    1.0000 </r>
       <r>   -0.0200    1.0000 </r>
       <r>    0.2805    1.0000 </r>
       <r>    0.3823    1.0000 </r>
       <r>    2.9208    0.0000 </r>
       <r>    3.2950    0.0000 </r>
       <r>    3.3823    0.0000 </r>
       <r>    3.5948    0.0000 </r>
       <r>    3.8156    0.0000 </r>
       <r>    4.1455    0.0000 </r>
      </set>
      <set comment="kpoint 10">
       <r>  -12.2472    1.0000 </r>
       <r>  -11.9245    1.0000 </r>
       <r>  -11.5099    1.0000 </r>
       <r>  -11.3291    1.0000 </r>
       <r>   -4.5438    1.0000 </r>
       <r>   -4.1951    1.0000 </r>
       <r>   -3.5176    1.0000 </r>
       <r>   -3.3211    1.0000 </r>
       <r>   -3.1138    1.0000 </r>
       <r>   -2.8657    1.0000 </r>
       <r>   -2.2217    1.0000 </r>
       <r>   -2.0648    1.0000 </r>
       <r>   -0.9768    1.0000 </r>
       <r>   -0.8376    1.0000 </r>
       <r>   -0.5992    1.0000 </r>
       <r>   -0.4149    1.0000 </r>
       <r>    0.0660    1.0000 </r>
       <r>    0.1490    1.0000 </r>
       <r>    2.9202    0.0000 </r>
       <r>    3.2981    0.0000 </r>
       <r>    3.4593    0.0000 </r>
       <r>    3.8992    0.0000 </r>
       <r>    4.0719    0.0000 </r>
       <r>    4.6277    0.0000 </r>
      </set>
      <set comment="kpoint 11">
       <r>  -11.7450    1.0000 </r>
       <r>  -11.4972    1.0000 </r>
       <r>  -11.3091    1.0000 </r>
       <r>  -11.1492    1.0000 </r>
       <r>   -5.0303    1.0000 </r>
       <r>   -4.5533    1.0000 </r>
       <r>   -3.9303    1.0000 </r>
       <r>   -3.7671    1.0000 </r>
       <r>   -3.3137    1.0000 </r>
       <r>   -2.9422    1.0000 </r>
       <r>   -2.3289    1.0000 </r>
       <r>   -2.2047    1.0000 </r>
       <r>   -0.9657    1.0000 </r>
       <r>   -0.8935    1.0000 </r>
       <r>   -0.7500    1.0000 </r>
       <r>   -0.6858    1.0000 </r>
       <r>    0.2599    1.0000 </r>
       <r>    0.3383    1.0000 </r>
       <r>    3.1031    0.0000 </r>
       <r>    3.4735    0.0000 </r>
       <r>    3.7456    0.0000 </r>
       <r>    4.1630    0.0000 </r>
       <r>    4.5080    0.0000 </r>
       <r>    5.0757    0.0000 </r>
      </set>
      <set comment="kpoint 12">
       <r>  -11.5335    1.0000 </r>
       <r>  -11.3218    1.0000 </r>
       <r>  -11.2298    1.0000 </r>
       <r>  -11.0773    1.0000 </r>
       <r>   -5.2486    1.0000 </r>
       <r>   -4.7097    1.0000 </r>
       <r>   -4.1423    1.0000 </r>
       <r>   -3.9757    1.0000 </r>
       <r>   -3.3605    1.0000 </r>
       <r>   -3.0235    1.0000 </r>
       <r>   -2.3414    1.0000 </r>
       <r>   -2.2445    1.0000 </r>
       <r>   -1.0642    1.0000 </r>
       <r>   -0.8814    1.0000 </r>
       <r>   -0.8337    1.0000 </r>
       <r>   -0.6115    1.0000 </r>
       <r>    0.4199    1.0000 </r>
       <r>    0.5172    1.0000 </r>
       <r>    3.1256    0.0000 </r>
       <r>    3.6739    0.0000 </r>
       <r>    3.8446    0.0000 </r>
       <r>    4.4220    0.0000 </r>
       <r>    4.7839    0.0000 </r>
       <r>    4.9710    0.0000 </r>
      </set>
      <set comment="kpoint 13">
       <r>  -11.7453    1.0000 </r>
       <r>  -11.4972    1.0000 </r>
       <r>  -11.3091    1.0000 </r>
       <r>  -11.1490    1.0000 </r>
       <r>   -5.0303    1.0000 </r>
       <r>   -4.5534    1.0000 </r>
       <r>   -3.9299    1.0000 </r>
       <r>   -3.7673    1.0000 </r>
       <r>   -3.3137    1.0000 </r>
       <r>   -2.9430    1.0000 </r>
       <r>   -2.3278    1.0000 </r>
       <r>   -2.2049    1.0000 </r>
       <r>   -0.9760    1.0000 </r>
       <r>   -0.8936    1.0000 </r>
       <r>   -0.7474    1.0000 </r>
       <r>   -0.6770    1.0000 </r>
       <r>    0.2622    1.0000 </r>
       <r>    0.3358    1.0000 </r>
       <r>    3.1030    0.0000 </r>
       <r>    3.4745    0.0000 </r>
       <r>    3.7443    0.0000 </r>
       <r>    4.1657    0.0000 </r>
       <r>    4.5055    0.0000 </r>
       <r>    5.1184    0.0000 </r>
      </set>
      <set comment="kpoint 14">
       <r>  -12.2474    1.0000 </r>
       <r>  -11.9245    1.0000 </r>
       <r>  -11.5099    1.0000 </r>
       <r>  -11.3288    1.0000 </r>
       <r>   -4.5438    1.0000 </r>
       <r>   -4.1953    1.0000 </r>
       <r>   -3.5167    1.0000 </r>
       <r>   -3.3212    1.0000 </r>
       <r>   -3.1145    1.0000 </r>
       <r>   -2.8670    1.0000 </r>
       <r>   -2.2203    1.0000 </r>
       <r>   -2.0649    1.0000 </r>
       <r>   -0.9787    1.0000 </r>
       <r>   -0.8396    1.0000 </r>
       <r>   -0.6022    1.0000 </r>
       <r>   -0.4068    1.0000 </r>
       <r>    0.0684    1.0000 </r>
       <r>    0.1474    1.0000 </r>
       <r>    2.9210    0.0000 </r>
       <r>    3.2974    0.0000 </r>
       <r>    3.4575    0.0000 </r>
       <r>    3.9002    0.0000 </r>
       <r>    4.0710    0.0000 </r>
       <r>    4.6200    0.0000 </r>
      </set>
      <set comment="kpoint 15">
       <r>  -12.8103    1.0000 </r>
       <r>  -12.4148    1.0000 </r>
       <r>  -11.7460    1.0000 </r>
       <r>  -11.5413    1.0000 </r>
       <r>   -4.4901    1.0000 </r>
       <r>   -3.9546    1.0000 </r>
       <r>   -3.3387    1.0000 </r>
       <r>   -2.8608    1.0000 </r>
       <r>   -2.6165    1.0000 </r>
       <r>   -2.3338    1.0000 </r>
       <r>   -1.8791    1.0000 </r>
       <r>   -1.7642    1.0000 </r>
       <r>   -1.0973    1.0000 </r>
       <r>   -1.0192    1.0000 </r>
       <r>   -0.3065    1.0000 </r>
       <r>   -0.0157    1.0000 </r>
       <r>    0.2809    1.0000 </r>
       <r>    0.3856    1.0000 </r>
       <r>    2.9199    0.0000 </r>
       <r>    3.2926    0.0000 </r>
       <r>    3.3819    0.0000 </r>
       <r>    3.5925    0.0000 </r>
       <r>    3.8170    0.0000 </r>
       <r>    4.1452    0.0000 </r>
      </set>
      <set comment="kpoint 16">
       <r>  -13.2654    1.0000 </r>
       <r>  -12.8160    1.0000 </r>
       <r>  -11.9417    1.0000 </r>
       <r>  -11.7181    1.0000 </r>
       <r>   -4.9066    1.0000 </r>
       <r>   -4.2213    1.0000 </r>
       <r>   -2.6521    1.0000 </r>
       <r>   -2.3776    1.0000 </r>
       <r>   -2.1129    1.0000 </r>
       <r>   -1.6478    1.0000 </r>
       <r>   -1.4103    1.0000 </r>
       <r>   -1.3519    1.0000 </r>
       <r>   -1.2474    1.0000 </r>
       <r>   -1.2025    1.0000 </r>
       <r>   -0.2552    1.0000 </r>
       <r>    0.1328    1.0000 </r>
       <r>    0.6507    1.0000 </r>
       <r>    0.9365    1.0000 </r>
       <r>    3.2512    0.0000 </r>
       <r>    3.3784    0.0000 </r>
       <r>    3.5577    0.0000 </r>
       <r>    3.6581    0.0000 </r>
       <r>    3.8665    0.0000 </r>
       <r>    4.1344    0.0000 </r>
      </set>
      <set comment="kpoint 17">
       <r>  -13.5153    1.0000 </r>
       <r>  -13.0372    1.0000 </r>
       <r>  -12.0502    1.0000 </r>
       <r>  -11.8163    1.0000 </r>
       <r>   -5.1897    1.0000 </r>
       <r>   -4.4590    1.0000 </r>
       <r>   -2.1128    1.0000 </r>
       <r>   -1.9664    1.0000 </r>
       <r>   -1.7263    1.0000 </r>
       <r>   -1.6362    1.0000 </r>
       <r>   -1.5755    1.0000 </r>
       <r>   -1.1611    1.0000 </r>
       <r>   -0.7825    1.0000 </r>
       <r>   -0.7351    1.0000 </r>
       <r>   -0.4042    1.0000 </r>
       <r>    0.0018    1.0000 </r>
       <r>    0.7868    1.0000 </r>
       <r>    1.3075    1.0000 </r>
       <r>    3.5442    0.0000 </r>
       <r>    3.6442    0.0000 </r>
       <r>    3.7762    0.0000 </r>
       <r>    3.8667    0.0000 </r>
       <r>    3.8909    0.0000 </r>
       <r>    3.9487    0.0000 </r>
      </set>
      <set comment="kpoint 18">
       <r>  -13.1463    1.0000 </r>
       <r>  -12.7108    1.0000 </r>
       <r>  -11.8903    1.0000 </r>
       <r>  -11.6719    1.0000 </r>
       <r>   -4.7880    1.0000 </r>
       <r>   -4.1340    1.0000 </r>
       <r>   -2.8786    1.0000 </r>
       <r>   -2.5493    1.0000 </r>
       <r>   -2.3209    1.0000 </r>
       <r>   -1.9300    1.0000 </r>
       <r>   -1.2859    1.0000 </r>
       <r>   -1.2328    1.0000 </r>
       <r>   -1.2118    1.0000 </r>
       <r>   -1.1934    1.0000 </r>
       <r>   -0.4309    1.0000 </r>
       <r>   -0.0047    1.0000 </r>
       <r>    0.5525    1.0000 </r>
       <r>    0.7476    1.0000 </r>
       <r>    3.1710    0.0000 </r>
       <r>    3.4611    0.0000 </r>
       <r>    3.4759    0.0000 </r>
       <r>    3.6870    0.0000 </r>
       <r>    3.7940    0.0000 </r>
       <r>    4.0941    0.0000 </r>
      </set>
      <set comment="kpoint 19">
       <r>  -12.8101    1.0000 </r>
       <r>  -12.4149    1.0000 </r>
       <r>  -11.7458    1.0000 </r>
       <r>  -11.5415    1.0000 </r>
       <r>   -4.4899    1.0000 </r>
       <r>   -3.9547    1.0000 </r>
       <r>   -3.3386    1.0000 </r>
       <r>   -2.8612    1.0000 </r>
       <r>   -2.6167    1.0000 </r>
       <r>   -2.3320    1.0000 </r>
       <r>   -1.8788    1.0000 </r>
       <r>   -1.7660    1.0000 </r>
       <r>   -1.0973    1.0000 </r>
       <r>   -1.0187    1.0000 </r>
       <r>   -0.3040    1.0000 </r>
       <r>   -0.0194    1.0000 </r>
       <r>    0.2805    1.0000 </r>
       <r>    0.3833    1.0000 </r>
       <r>    2.9212    0.0000 </r>
       <r>    3.2944    0.0000 </r>
       <r>    3.3825    0.0000 </r>
       <r>    3.5939    0.0000 </r>
       <r>    3.8158    0.0000 </r>
       <r>    4.1454    0.0000 </r>
      </set>
      <set comment="kpoint 20">
       <r>  -12.3242    1.0000 </r>
       <r>  -11.9915    1.0000 </r>
       <r>  -11.5383    1.0000 </r>
       <r>  -11.3539    1.0000 </r>
       <r>   -4.3476    1.0000 </r>
       <r>   -4.0431    1.0000 </r>
       <r>   -3.4715    1.0000 </r>
       <r>   -3.1300    1.0000 </r>
       <r>   -2.9573    1.0000 </r>
       <r>   -2.8640    1.0000 </r>
       <r>   -2.5066    1.0000 </r>
       <r>   -2.1764    1.0000 </r>
       <r>   -1.2946    1.0000 </r>
       <r>   -1.1443    1.0000 </r>
       <r>   -0.3181    1.0000 </r>
       <r>   -0.1926    1.0000 </r>
       <r>    0.1130    1.0000 </r>
       <r>    0.2325    1.0000 </r>
       <r>    2.7720    0.0000 </r>
       <r>    3.2272    0.0000 </r>
       <r>    3.4201    0.0000 </r>
       <r>    3.7056    0.0000 </r>
       <r>    4.0038    0.0000 </r>
       <r>    4.3276    0.0000 </r>
      </set>
      <set comment="kpoint 21">
       <r>  -11.8145    1.0000 </r>
       <r>  -11.5559    1.0000 </r>
       <r>  -11.3242    1.0000 </r>
       <r>  -11.1604    1.0000 </r>
       <r>   -4.6366    1.0000 </r>
       <r>   -4.2584    1.0000 </r>
       <r>   -3.8472    1.0000 </r>
       <r>   -3.7050    1.0000 </r>
       <r>   -3.2095    1.0000 </r>
       <r>   -2.8209    1.0000 </r>
       <r>   -2.5110    1.0000 </r>
       <r>   -2.2145    1.0000 </r>
       <r>   -1.7319    1.0000 </r>
       <r>   -1.5016    1.0000 </r>
       <r>   -0.6842    1.0000 </r>
       <r>   -0.5375    1.0000 </r>
       <r>    0.2670    1.0000 </r>
       <r>    0.3641    1.0000 </r>
       <r>    3.0177    0.0000 </r>
       <r>    3.4577    0.0000 </r>
       <r>    3.5759    0.0000 </r>
       <r>    4.0075    0.0000 </r>
       <r>    4.1911    0.0000 </r>
       <r>    4.6504    0.0000 </r>
      </set>
      <set comment="kpoint 22">
       <r>  -11.4695    1.0000 </r>
       <r>  -11.2693    1.0000 </r>
       <r>  -11.1845    1.0000 </r>
       <r>  -11.0331    1.0000 </r>
       <r>   -4.8676    1.0000 </r>
       <r>   -4.3741    1.0000 </r>
       <r>   -4.2876    1.0000 </r>
       <r>   -4.1356    1.0000 </r>
       <r>   -3.2542    1.0000 </r>
       <r>   -2.9376    1.0000 </r>
       <r>   -2.3948    1.0000 </r>
       <r>   -2.1738    1.0000 </r>
       <r>   -1.8632    1.0000 </r>
       <r>   -1.5860    1.0000 </r>
       <r>   -1.0559    1.0000 </r>
       <r>   -0.8367    1.0000 </r>
       <r>    0.5435    1.0000 </r>
       <r>    0.6677    1.0000 </r>
       <r>    3.0111    0.0000 </r>
       <r>    3.5596    0.0000 </r>
       <r>    3.8607    0.0000 </r>
       <r>    4.1839    0.0000 </r>
       <r>    4.5819    0.0000 </r>
       <r>    4.8851    0.0000 </r>
      </set>
      <set comment="kpoint 23">
       <r>  -11.4698    1.0000 </r>
       <r>  -11.2695    1.0000 </r>
       <r>  -11.1842    1.0000 </r>
       <r>  -11.0328    1.0000 </r>
       <r>   -4.8675    1.0000 </r>
       <r>   -4.3743    1.0000 </r>
       <r>   -4.2876    1.0000 </r>
       <r>   -4.1354    1.0000 </r>
       <r>   -3.2537    1.0000 </r>
       <r>   -2.9387    1.0000 </r>
       <r>   -2.3941    1.0000 </r>
       <r>   -2.1749    1.0000 </r>
       <r>   -1.8652    1.0000 </r>
       <r>   -1.5848    1.0000 </r>
       <r>   -1.0545    1.0000 </r>
       <r>   -0.8355    1.0000 </r>
       <r>    0.5430    1.0000 </r>
       <r>    0.6677    1.0000 </r>
       <r>    3.0112    0.0000 </r>
       <r>    3.5605    0.0000 </r>
       <r>    3.8612    0.0000 </r>
       <r>    4.1835    0.0000 </r>
       <r>    4.5825    0.0000 </r>
       <r>    4.8956    0.0000 </r>
      </set>
      <set comment="kpoint 24">
       <r>  -11.8151    1.0000 </r>
       <r>  -11.5559    1.0000 </r>
       <r>  -11.3242    1.0000 </r>
       <r>  -11.1597    1.0000 </r>
       <r>   -4.6364    1.0000 </r>
       <r>   -4.2583    1.0000 </r>
       <r>   -3.8473    1.0000 </r>
       <r>   -3.7039    1.0000 </r>
       <r>   -3.2114    1.0000 </r>
       <r>   -2.8236    1.0000 </r>
       <r>   -2.5092    1.0000 </r>
       <r>   -2.2143    1.0000 </r>
       <r>   -1.7326    1.0000 </r>
       <r>   -1.5018    1.0000 </r>
       <r>   -0.6829    1.0000 </r>
       <r>   -0.5336    1.0000 </r>
       <r>    0.2658    1.0000 </r>
       <r>    0.3639    1.0000 </r>
       <r>    3.0190    0.0000 </r>
       <r>    3.4585    0.0000 </r>
       <r>    3.5752    0.0000 </r>
       <r>    4.0053    0.0000 </r>
       <r>    4.1909    0.0000 </r>
       <r>    4.6488    0.0000 </r>
      </set>
      <set comment="kpoint 25">
       <r>  -12.3247    1.0000 </r>
       <r>  -11.9915    1.0000 </r>
       <r>  -11.5385    1.0000 </r>
       <r>  -11.3532    1.0000 </r>
       <r>   -4.3472    1.0000 </r>
       <r>   -4.0430    1.0000 </r>
       <r>   -3.4732    1.0000 </r>
       <r>   -3.1282    1.0000 </r>
       <r>   -2.9572    1.0000 </r>
       <r>   -2.8673    1.0000 </r>
       <r>   -2.5068    1.0000 </r>
       <r>   -2.1744    1.0000 </r>
       <r>   -1.2947    1.0000 </r>
       <r>   -1.1449    1.0000 </r>
       <r>   -0.3188    1.0000 </r>
       <r>   -0.1868    1.0000 </r>
       <r>    0.1136    1.0000 </r>
       <r>    0.2320    1.0000 </r>
       <r>    2.7716    0.0000 </r>
       <r>    3.2247    0.0000 </r>
       <r>    3.4203    0.0000 </r>
       <r>    3.7040    0.0000 </r>
       <r>    4.0042    0.0000 </r>
       <r>    4.3280    0.0000 </r>
      </set>
      <set comment="kpoint 26">
       <r>  -12.8104    1.0000 </r>
       <r>  -12.4149    1.0000 </r>
       <r>  -11.7460    1.0000 </r>
       <r>  -11.5410    1.0000 </r>
       <r>   -4.4901    1.0000 </r>
       <r>   -3.9550    1.0000 </r>
       <r>   -3.3391    1.0000 </r>
       <r>   -2.8603    1.0000 </r>
       <r>   -2.6157    1.0000 </r>
       <r>   -2.3336    1.0000 </r>
       <r>   -1.8819    1.0000 </r>
       <r>   -1.7636    1.0000 </r>
       <r>   -1.0972    1.0000 </r>
       <r>   -1.0188    1.0000 </r>
       <r>   -0.3033    1.0000 </r>
       <r>   -0.0168    1.0000 </r>
       <r>    0.2825    1.0000 </r>
       <r>    0.3833    1.0000 </r>
       <r>    2.9184    0.0000 </r>
       <r>    3.2944    0.0000 </r>
       <r>    3.3800    0.0000 </r>
       <r>    3.5944    0.0000 </r>
       <r>    3.8154    0.0000 </r>
       <r>    4.1454    0.0000 </r>
      </set>
      <set comment="kpoint 27">
       <r>  -13.1464    1.0000 </r>
       <r>  -12.7108    1.0000 </r>
       <r>  -11.8905    1.0000 </r>
       <r>  -11.6717    1.0000 </r>
       <r>   -4.7883    1.0000 </r>
       <r>   -4.1339    1.0000 </r>
       <r>   -2.8789    1.0000 </r>
       <r>   -2.5493    1.0000 </r>
       <r>   -2.3199    1.0000 </r>
       <r>   -1.9309    1.0000 </r>
       <r>   -1.2861    1.0000 </r>
       <r>   -1.2330    1.0000 </r>
       <r>   -1.2121    1.0000 </r>
       <r>   -1.1937    1.0000 </r>
       <r>   -0.4294    1.0000 </r>
       <r>   -0.0042    1.0000 </r>
       <r>    0.5526    1.0000 </r>
       <r>    0.7494    1.0000 </r>
       <r>    3.1687    0.0000 </r>
       <r>    3.4606    0.0000 </r>
       <r>    3.4750    0.0000 </r>
       <r>    3.6870    0.0000 </r>
       <r>    3.7915    0.0000 </r>
       <r>    4.0661    0.0000 </r>
      </set>
      <set comment="kpoint 28">
       <r>  -13.2654    1.0000 </r>
       <r>  -12.8160    1.0000 </r>
       <r>  -11.9417    1.0000 </r>
       <r>  -11.7181    1.0000 </r>
       <r>   -4.9066    1.0000 </r>
       <r>   -4.2214    1.0000 </r>
       <r>   -2.6521    1.0000 </r>
       <r>   -2.3783    1.0000 </r>
       <r>   -2.1123    1.0000 </r>
       <r>   -1.6467    1.0000 </r>
       <r>   -1.4102    1.0000 </r>
       <r>   -1.3513    1.0000 </r>
       <r>   -1.2480    1.0000 </r>
       <r>   -1.2043    1.0000 </r>
       <r>   -0.2547    1.0000 </r>
       <r>    0.1325    1.0000 </r>
       <r>    0.6513    1.0000 </r>
       <r>    0.9360    1.0000 </r>
       <r>    3.2519    0.0000 </r>
       <r>    3.3774    0.0000 </r>
       <r>    3.5575    0.0000 </r>
       <r>    3.6560    0.0000 </r>
       <r>    3.8380    0.0000 </r>
       <r>    3.9148    0.0000 </r>
      </set>
      <set comment="kpoint 29">
       <r>  -12.6088    1.0000 </r>
       <r>  -12.2385    1.0000 </r>
       <r>  -11.6620    1.0000 </r>
       <r>  -11.4662    1.0000 </r>
       <r>   -4.4749    1.0000 </r>
       <r>   -4.0499    1.0000 </r>
       <r>   -3.4915    1.0000 </r>
       <r>   -3.0606    1.0000 </r>
       <r>   -2.8753    1.0000 </r>
       <r>   -2.6801    1.0000 </r>
       <r>   -1.7117    1.0000 </r>
       <r>   -1.6643    1.0000 </r>
       <r>   -0.8152    1.0000 </r>
       <r>   -0.7479    1.0000 </r>
       <r>   -0.7095    1.0000 </r>
       <r>   -0.3498    1.0000 </r>
       <r>    0.0705    1.0000 </r>
       <r>    0.1715    1.0000 </r>
       <r>    3.0778    0.0000 </r>
       <r>    3.2018    0.0000 </r>
       <r>    3.5826    0.0000 </r>
       <r>    3.6305    0.0000 </r>
       <r>    4.0059    0.0000 </r>
       <r>    4.5641    0.0000 </r>
      </set>
      <set comment="kpoint 30">
       <r>  -12.2471    1.0000 </r>
       <r>  -11.9246    1.0000 </r>
       <r>  -11.5097    1.0000 </r>
       <r>  -11.3290    1.0000 </r>
       <r>   -4.5440    1.0000 </r>
       <r>   -4.1952    1.0000 </r>
       <r>   -3.5165    1.0000 </r>
       <r>   -3.3214    1.0000 </r>
       <r>   -3.1130    1.0000 </r>
       <r>   -2.8668    1.0000 </r>
       <r>   -2.2218    1.0000 </r>
       <r>   -2.0662    1.0000 </r>
       <r>   -0.9771    1.0000 </r>
       <r>   -0.8375    1.0000 </r>
       <r>   -0.6023    1.0000 </r>
       <r>   -0.4114    1.0000 </r>
       <r>    0.0660    1.0000 </r>
       <r>    0.1503    1.0000 </r>
       <r>    2.9205    0.0000 </r>
       <r>    3.2978    0.0000 </r>
       <r>    3.4591    0.0000 </r>
       <r>    3.8986    0.0000 </r>
       <r>    4.0711    0.0000 </r>
       <r>    4.6362    0.0000 </r>
      </set>
      <set comment="kpoint 31">
       <r>  -11.8144    1.0000 </r>
       <r>  -11.5560    1.0000 </r>
       <r>  -11.3242    1.0000 </r>
       <r>  -11.1603    1.0000 </r>
       <r>   -4.6366    1.0000 </r>
       <r>   -4.2585    1.0000 </r>
       <r>   -3.8471    1.0000 </r>
       <r>   -3.7053    1.0000 </r>
       <r>   -3.2075    1.0000 </r>
       <r>   -2.8225    1.0000 </r>
       <r>   -2.5112    1.0000 </r>
       <r>   -2.2155    1.0000 </r>
       <r>   -1.7319    1.0000 </r>
       <r>   -1.5010    1.0000 </r>
       <r>   -0.6873    1.0000 </r>
       <r>   -0.5341    1.0000 </r>
       <r>    0.2670    1.0000 </r>
       <r>    0.3643    1.0000 </r>
       <r>    3.0178    0.0000 </r>
       <r>    3.4577    0.0000 </r>
       <r>    3.5759    0.0000 </r>
       <r>    4.0074    0.0000 </r>
       <r>    4.1908    0.0000 </r>
       <r>    4.6504    0.0000 </r>
      </set>
      <set comment="kpoint 32">
       <r>  -11.4492    1.0000 </r>
       <r>  -11.2527    1.0000 </r>
       <r>  -11.1653    1.0000 </r>
       <r>  -11.0140    1.0000 </r>
       <r>   -4.5650    1.0000 </r>
       <r>   -4.3792    1.0000 </r>
       <r>   -4.2035    1.0000 </r>
       <r>   -4.1096    1.0000 </r>
       <r>   -3.0503    1.0000 </r>
       <r>   -2.7871    1.0000 </r>
       <r>   -2.5849    1.0000 </r>
       <r>   -2.3888    1.0000 </r>
       <r>   -2.2648    1.0000 </r>
       <r>   -2.0591    1.0000 </r>
       <r>   -1.0417    1.0000 </r>
       <r>   -0.8277    1.0000 </r>
       <r>    0.5731    1.0000 </r>
       <r>    0.7111    1.0000 </r>
       <r>    2.9167    0.0000 </r>
       <r>    3.3820    0.0000 </r>
       <r>    3.8841    0.0000 </r>
       <r>    3.9855    0.0000 </r>
       <r>    4.5886    0.0000 </r>
       <r>    4.7057    0.0000 </r>
      </set>
      <set comment="kpoint 33">
       <r>  -11.3034    1.0000 </r>
       <r>  -11.1325    1.0000 </r>
       <r>  -11.1039    1.0000 </r>
       <r>  -10.9543    1.0000 </r>
       <r>   -4.5903    1.0000 </r>
       <r>   -4.4296    1.0000 </r>
       <r>   -4.3962    1.0000 </r>
       <r>   -3.9007    1.0000 </r>
       <r>   -3.2397    1.0000 </r>
       <r>   -3.0300    1.0000 </r>
       <r>   -2.7181    1.0000 </r>
       <r>   -2.5365    1.0000 </r>
       <r>   -2.1841    1.0000 </r>
       <r>   -1.9910    1.0000 </r>
       <r>   -1.2263    1.0000 </r>
       <r>   -1.0608    1.0000 </r>
       <r>    0.8119    1.0000 </r>
       <r>    1.0035    1.0000 </r>
       <r>    2.6691    0.0000 </r>
       <r>    3.0516    0.0000 </r>
       <r>    3.8844    0.0000 </r>
       <r>    4.2969    0.0000 </r>
       <r>    4.6173    0.0000 </r>
       <r>    4.9997    0.0000 </r>
      </set>
      <set comment="kpoint 34">
       <r>  -11.4502    1.0000 </r>
       <r>  -11.2533    1.0000 </r>
       <r>  -11.1645    1.0000 </r>
       <r>  -11.0132    1.0000 </r>
       <r>   -4.5647    1.0000 </r>
       <r>   -4.3802    1.0000 </r>
       <r>   -4.2018    1.0000 </r>
       <r>   -4.1089    1.0000 </r>
       <r>   -3.0523    1.0000 </r>
       <r>   -2.7953    1.0000 </r>
       <r>   -2.5819    1.0000 </r>
       <r>   -2.3874    1.0000 </r>
       <r>   -2.2637    1.0000 </r>
       <r>   -2.0588    1.0000 </r>
       <r>   -1.0295    1.0000 </r>
       <r>   -0.8352    1.0000 </r>
       <r>    0.5717    1.0000 </r>
       <r>    0.7114    1.0000 </r>
       <r>    2.9170    0.0000 </r>
       <r>    3.3832    0.0000 </r>
       <r>    3.8853    0.0000 </r>
       <r>    3.9849    0.0000 </r>
       <r>    4.5892    0.0000 </r>
       <r>    4.6993    0.0000 </r>
      </set>
      <set comment="kpoint 35">
       <r>  -11.8155    1.0000 </r>
       <r>  -11.5561    1.0000 </r>
       <r>  -11.3242    1.0000 </r>
       <r>  -11.1591    1.0000 </r>
       <r>   -4.6361    1.0000 </r>
       <r>   -4.2573    1.0000 </r>
       <r>   -3.8475    1.0000 </r>
       <r>   -3.7028    1.0000 </r>
       <r>   -3.2195    1.0000 </r>
       <r>   -2.8196    1.0000 </r>
       <r>   -2.5101    1.0000 </r>
       <r>   -2.2129    1.0000 </r>
       <r>   -1.7323    1.0000 </r>
       <r>   -1.5015    1.0000 </r>
       <r>   -0.6712    1.0000 </r>
       <r>   -0.5439    1.0000 </r>
       <r>    0.2660    1.0000 </r>
       <r>    0.3634    1.0000 </r>
       <r>    3.0191    0.0000 </r>
       <r>    3.4583    0.0000 </r>
       <r>    3.5747    0.0000 </r>
       <r>    4.0042    0.0000 </r>
       <r>    4.1915    0.0000 </r>
       <r>    4.6505    0.0000 </r>
      </set>
      <set comment="kpoint 36">
       <r>  -12.2479    1.0000 </r>
       <r>  -11.9246    1.0000 </r>
       <r>  -11.5100    1.0000 </r>
       <r>  -11.3280    1.0000 </r>
       <r>   -4.5431    1.0000 </r>
       <r>   -4.1949    1.0000 </r>
       <r>   -3.5200    1.0000 </r>
       <r>   -3.3199    1.0000 </r>
       <r>   -3.1160    1.0000 </r>
       <r>   -2.8660    1.0000 </r>
       <r>   -2.2231    1.0000 </r>
       <r>   -2.0642    1.0000 </r>
       <r>   -0.9768    1.0000 </r>
       <r>   -0.8363    1.0000 </r>
       <r>   -0.5923    1.0000 </r>
       <r>   -0.4155    1.0000 </r>
       <r>    0.0695    1.0000 </r>
       <r>    0.1441    1.0000 </r>
       <r>    2.9202    0.0000 </r>
       <r>    3.2975    0.0000 </r>
       <r>    3.4574    0.0000 </r>
       <r>    3.9009    0.0000 </r>
       <r>    4.0699    0.0000 </r>
       <r>    4.6281    0.0000 </r>
      </set>
      <set comment="kpoint 37">
       <r>  -12.6092    1.0000 </r>
       <r>  -12.2385    1.0000 </r>
       <r>  -11.6623    1.0000 </r>
       <r>  -11.4656    1.0000 </r>
       <r>   -4.4741    1.0000 </r>
       <r>   -4.0510    1.0000 </r>
       <r>   -3.4935    1.0000 </r>
       <r>   -3.0574    1.0000 </r>
       <r>   -2.8749    1.0000 </r>
       <r>   -2.6830    1.0000 </r>
       <r>   -1.7129    1.0000 </r>
       <r>   -1.6642    1.0000 </r>
       <r>   -0.8152    1.0000 </r>
       <r>   -0.7476    1.0000 </r>
       <r>   -0.7010    1.0000 </r>
       <r>   -0.3506    1.0000 </r>
       <r>    0.0771    1.0000 </r>
       <r>    0.1613    1.0000 </r>
       <r>    3.0777    0.0000 </r>
       <r>    3.2016    0.0000 </r>
       <r>    3.5824    0.0000 </r>
       <r>    3.6302    0.0000 </r>
       <r>    4.0074    0.0000 </r>
       <r>    4.5611    0.0000 </r>
      </set>
      <set comment="kpoint 38">
       <r>  -12.8104    1.0000 </r>
       <r>  -12.4150    1.0000 </r>
       <r>  -11.7460    1.0000 </r>
       <r>  -11.5409    1.0000 </r>
       <r>   -4.4900    1.0000 </r>
       <r>   -3.9550    1.0000 </r>
       <r>   -3.3392    1.0000 </r>
       <r>   -2.8609    1.0000 </r>
       <r>   -2.6156    1.0000 </r>
       <r>   -2.3336    1.0000 </r>
       <r>   -1.8820    1.0000 </r>
       <r>   -1.7637    1.0000 </r>
       <r>   -1.0971    1.0000 </r>
       <r>   -1.0187    1.0000 </r>
       <r>   -0.3027    1.0000 </r>
       <r>   -0.0179    1.0000 </r>
       <r>    0.2834    1.0000 </r>
       <r>    0.3829    1.0000 </r>
       <r>    2.9179    0.0000 </r>
       <r>    3.2945    0.0000 </r>
       <r>    3.3808    0.0000 </r>
       <r>    3.5947    0.0000 </r>
       <r>    3.8153    0.0000 </r>
       <r>    4.1456    0.0000 </r>
      </set>
      <set comment="kpoint 39">
       <r>  -12.8103    1.0000 </r>
       <r>  -12.4150    1.0000 </r>
       <r>  -11.7459    1.0000 </r>
       <r>  -11.5411    1.0000 </r>
       <r>   -4.4901    1.0000 </r>
       <r>   -3.9547    1.0000 </r>
       <r>   -3.3387    1.0000 </r>
       <r>   -2.8616    1.0000 </r>
       <r>   -2.6162    1.0000 </r>
       <r>   -2.3330    1.0000 </r>
       <r>   -1.8792    1.0000 </r>
       <r>   -1.7657    1.0000 </r>
       <r>   -1.0972    1.0000 </r>
       <r>   -1.0188    1.0000 </r>
       <r>   -0.3072    1.0000 </r>
       <r>   -0.0163    1.0000 </r>
       <r>    0.2818    1.0000 </r>
       <r>    0.3862    1.0000 </r>
       <r>    2.9197    0.0000 </r>
       <r>    3.2922    0.0000 </r>
       <r>    3.3828    0.0000 </r>
       <r>    3.5918    0.0000 </r>
       <r>    3.8170    0.0000 </r>
       <r>    4.1457    0.0000 </r>
      </set>
      <set comment="kpoint 40">
       <r>  -12.0347    1.0000 </r>
       <r>  -11.7421    1.0000 </r>
       <r>  -11.4283    1.0000 </r>
       <r>  -11.2568    1.0000 </r>
       <r>   -4.8760    1.0000 </r>
       <r>   -4.4494    1.0000 </r>
       <r>   -3.6951    1.0000 </r>
       <r>   -3.4985    1.0000 </r>
       <r>   -3.2796    1.0000 </r>
       <r>   -2.9144    1.0000 </r>
       <r>   -2.0883    1.0000 </r>
       <r>   -2.0234    1.0000 </r>
       <r>   -0.9611    1.0000 </r>
       <r>   -0.6931    1.0000 </r>
       <r>   -0.4199    1.0000 </r>
       <r>   -0.3104    1.0000 </r>
       <r>   -0.1232    1.0000 </r>
       <r>    0.0369    1.0000 </r>
       <r>    3.0845    0.0000 </r>
       <r>    3.3164    0.0000 </r>
       <r>    3.6913    0.0000 </r>
       <r>    3.8803    0.0000 </r>
       <r>    4.4718    0.0000 </r>
       <r>    5.0485    0.0000 </r>
      </set>
      <set comment="kpoint 41">
       <r>  -11.7448    1.0000 </r>
       <r>  -11.4974    1.0000 </r>
       <r>  -11.3091    1.0000 </r>
       <r>  -11.1490    1.0000 </r>
       <r>   -5.0304    1.0000 </r>
       <r>   -4.5533    1.0000 </r>
       <r>   -3.9310    1.0000 </r>
       <r>   -3.7669    1.0000 </r>
       <r>   -3.3115    1.0000 </r>
       <r>   -2.9443    1.0000 </r>
       <r>   -2.3289    1.0000 </r>
       <r>   -2.2060    1.0000 </r>
       <r>   -0.9717    1.0000 </r>
       <r>   -0.8947    1.0000 </r>
       <r>   -0.7459    1.0000 </r>
       <r>   -0.6821    1.0000 </r>
       <r>    0.2592    1.0000 </r>
       <r>    0.3399    1.0000 </r>
       <r>    3.1035    0.0000 </r>
       <r>    3.4736    0.0000 </r>
       <r>    3.7455    0.0000 </r>
       <r>    4.1631    0.0000 </r>
       <r>    4.5051    0.0000 </r>
       <r>    5.0997    0.0000 </r>
      </set>
      <set comment="kpoint 42">
       <r>  -11.4693    1.0000 </r>
       <r>  -11.2693    1.0000 </r>
       <r>  -11.1847    1.0000 </r>
       <r>  -11.0329    1.0000 </r>
       <r>   -4.8676    1.0000 </r>
       <r>   -4.3739    1.0000 </r>
       <r>   -4.2881    1.0000 </r>
       <r>   -4.1364    1.0000 </r>
       <r>   -3.2511    1.0000 </r>
       <r>   -2.9400    1.0000 </r>
       <r>   -2.3950    1.0000 </r>
       <r>   -2.1742    1.0000 </r>
       <r>   -1.8638    1.0000 </r>
       <r>   -1.5858    1.0000 </r>
       <r>   -1.0607    1.0000 </r>
       <r>   -0.8316    1.0000 </r>
       <r>    0.5432    1.0000 </r>
       <r>    0.6686    1.0000 </r>
       <r>    3.0114    0.0000 </r>
       <r>    3.5597    0.0000 </r>
       <r>    3.8607    0.0000 </r>
       <r>    4.1838    0.0000 </r>
       <r>    4.5850    0.0000 </r>
       <r>    4.8882    0.0000 </r>
      </set>
      <set comment="kpoint 43">
       <r>  -11.3033    1.0000 </r>
       <r>  -11.1322    1.0000 </r>
       <r>  -11.1043    1.0000 </r>
       <r>  -10.9542    1.0000 </r>
       <r>   -4.5902    1.0000 </r>
       <r>   -4.4293    1.0000 </r>
       <r>   -4.3970    1.0000 </r>
       <r>   -3.9010    1.0000 </r>
       <r>   -3.2382    1.0000 </r>
       <r>   -3.0295    1.0000 </r>
       <r>   -2.7193    1.0000 </r>
       <r>   -2.5365    1.0000 </r>
       <r>   -2.1847    1.0000 </r>
       <r>   -1.9903    1.0000 </r>
       <r>   -1.2312    1.0000 </r>
       <r>   -1.0564    1.0000 </r>
       <r>    0.8119    1.0000 </r>
       <r>    1.0036    1.0000 </r>
       <r>    2.6694    0.0000 </r>
       <r>    3.0517    0.0000 </r>
       <r>    3.8845    0.0000 </r>
       <r>    4.2967    0.0000 </r>
       <r>    4.6183    0.0000 </r>
       <r>    4.9991    0.0000 </r>
      </set>
      <set comment="kpoint 44">
       <r>  -11.3042    1.0000 </r>
       <r>  -11.1341    1.0000 </r>
       <r>  -11.1022    1.0000 </r>
       <r>  -10.9536    1.0000 </r>
       <r>   -4.5909    1.0000 </r>
       <r>   -4.4305    1.0000 </r>
       <r>   -4.3941    1.0000 </r>
       <r>   -3.8987    1.0000 </r>
       <r>   -3.2454    1.0000 </r>
       <r>   -3.0323    1.0000 </r>
       <r>   -2.7132    1.0000 </r>
       <r>   -2.5377    1.0000 </r>
       <r>   -2.1824    1.0000 </r>
       <r>   -1.9949    1.0000 </r>
       <r>   -1.2071    1.0000 </r>
       <r>   -1.0756    1.0000 </r>
       <r>    0.8121    1.0000 </r>
       <r>    1.0031    1.0000 </r>
       <r>    2.6694    0.0000 </r>
       <r>    3.0518    0.0000 </r>
       <r>    3.8847    0.0000 </r>
       <r>    4.2988    0.0000 </r>
       <r>    4.6139    0.0000 </r>
       <r>    4.9987    0.0000 </r>
      </set>
      <set comment="kpoint 45">
       <r>  -11.4710    1.0000 </r>
       <r>  -11.2704    1.0000 </r>
       <r>  -11.1833    1.0000 </r>
       <r>  -11.0315    1.0000 </r>
       <r>   -4.8670    1.0000 </r>
       <r>   -4.3743    1.0000 </r>
       <r>   -4.2859    1.0000 </r>
       <r>   -4.1348    1.0000 </r>
       <r>   -3.2662    1.0000 </r>
       <r>   -2.9325    1.0000 </r>
       <r>   -2.3949    1.0000 </r>
       <r>   -2.1764    1.0000 </r>
       <r>   -1.8631    1.0000 </r>
       <r>   -1.5846    1.0000 </r>
       <r>   -1.0345    1.0000 </r>
       <r>   -0.8511    1.0000 </r>
       <r>    0.5451    1.0000 </r>
       <r>    0.6654    1.0000 </r>
       <r>    3.0118    0.0000 </r>
       <r>    3.5602    0.0000 </r>
       <r>    3.8623    0.0000 </r>
       <r>    4.1829    0.0000 </r>
       <r>    4.5801    0.0000 </r>
       <r>    4.8881    0.0000 </r>
      </set>
      <set comment="kpoint 46">
       <r>  -11.7465    1.0000 </r>
       <r>  -11.4977    1.0000 </r>
       <r>  -11.3088    1.0000 </r>
       <r>  -11.1474    1.0000 </r>
       <r>   -5.0296    1.0000 </r>
       <r>   -4.5523    1.0000 </r>
       <r>   -3.9276    1.0000 </r>
       <r>   -3.7692    1.0000 </r>
       <r>   -3.3235    1.0000 </r>
       <r>   -2.9391    1.0000 </r>
       <r>   -2.3301    1.0000 </r>
       <r>   -2.2053    1.0000 </r>
       <r>   -0.9544    1.0000 </r>
       <r>   -0.8869    1.0000 </r>
       <r>   -0.7586    1.0000 </r>
       <r>   -0.6861    1.0000 </r>
       <r>    0.2657    1.0000 </r>
       <r>    0.3314    1.0000 </r>
       <r>    3.1041    0.0000 </r>
       <r>    3.4730    0.0000 </r>
       <r>    3.7447    0.0000 </r>
       <r>    4.1636    0.0000 </r>
       <r>    4.5062    0.0000 </r>
       <r>    5.1312    0.0000 </r>
      </set>
      <set comment="kpoint 47">
       <r>  -12.0358    1.0000 </r>
       <r>  -11.7422    1.0000 </r>
       <r>  -11.4285    1.0000 </r>
       <r>  -11.2556    1.0000 </r>
       <r>   -4.8751    1.0000 </r>
       <r>   -4.4488    1.0000 </r>
       <r>   -3.6928    1.0000 </r>
       <r>   -3.5018    1.0000 </r>
       <r>   -3.2867    1.0000 </r>
       <r>   -2.9112    1.0000 </r>
       <r>   -2.0894    1.0000 </r>
       <r>   -2.0234    1.0000 </r>
       <r>   -0.9430    1.0000 </r>
       <r>   -0.6998    1.0000 </r>
       <r>   -0.4203    1.0000 </r>
       <r>   -0.3101    1.0000 </r>
       <r>   -0.1186    1.0000 </r>
       <r>    0.0268    1.0000 </r>
       <r>    3.0845    0.0000 </r>
       <r>    3.3161    0.0000 </r>
       <r>    3.6914    0.0000 </r>
       <r>    3.8808    0.0000 </r>
       <r>    4.4762    0.0000 </r>
       <r>    5.0526    0.0000 </r>
      </set>
      <set comment="kpoint 48">
       <r>  -12.2479    1.0000 </r>
       <r>  -11.9247    1.0000 </r>
       <r>  -11.5100    1.0000 </r>
       <r>  -11.3279    1.0000 </r>
       <r>   -4.5431    1.0000 </r>
       <r>   -4.1949    1.0000 </r>
       <r>   -3.5203    1.0000 </r>
       <r>   -3.3200    1.0000 </r>
       <r>   -3.1166    1.0000 </r>
       <r>   -2.8658    1.0000 </r>
       <r>   -2.2230    1.0000 </r>
       <r>   -2.0635    1.0000 </r>
       <r>   -0.9766    1.0000 </r>
       <r>   -0.8366    1.0000 </r>
       <r>   -0.5919    1.0000 </r>
       <r>   -0.4175    1.0000 </r>
       <r>    0.0700    1.0000 </r>
       <r>    0.1447    1.0000 </r>
       <r>    2.9194    0.0000 </r>
       <r>    3.2982    0.0000 </r>
       <r>    3.4580    0.0000 </r>
       <r>    3.9010    0.0000 </r>
       <r>    4.0710    0.0000 </r>
       <r>    4.6288    0.0000 </r>
      </set>
      <set comment="kpoint 49">
       <r>  -12.3247    1.0000 </r>
       <r>  -11.9916    1.0000 </r>
       <r>  -11.5384    1.0000 </r>
       <r>  -11.3530    1.0000 </r>
       <r>   -4.3473    1.0000 </r>
       <r>   -4.0431    1.0000 </r>
       <r>   -3.4730    1.0000 </r>
       <r>   -3.1288    1.0000 </r>
       <r>   -2.9583    1.0000 </r>
       <r>   -2.8672    1.0000 </r>
       <r>   -2.5064    1.0000 </r>
       <r>   -2.1743    1.0000 </r>
       <r>   -1.2946    1.0000 </r>
       <r>   -1.1446    1.0000 </r>
       <r>   -0.3195    1.0000 </r>
       <r>   -0.1878    1.0000 </r>
       <r>    0.1146    1.0000 </r>
       <r>    0.2324    1.0000 </r>
       <r>    2.7713    0.0000 </r>
       <r>    3.2252    0.0000 </r>
       <r>    3.4209    0.0000 </r>
       <r>    3.7047    0.0000 </r>
       <r>    4.0042    0.0000 </r>
       <r>    4.3278    0.0000 </r>
      </set>
      <set comment="kpoint 50">
       <r>  -12.2473    1.0000 </r>
       <r>  -11.9247    1.0000 </r>
       <r>  -11.5098    1.0000 </r>
       <r>  -11.3286    1.0000 </r>
       <r>   -4.5440    1.0000 </r>
       <r>   -4.1954    1.0000 </r>
       <r>   -3.5159    1.0000 </r>
       <r>   -3.3216    1.0000 </r>
       <r>   -3.1142    1.0000 </r>
       <r>   -2.8679    1.0000 </r>
       <r>   -2.2203    1.0000 </r>
       <r>   -2.0657    1.0000 </r>
       <r>   -0.9787    1.0000 </r>
       <r>   -0.8398    1.0000 </r>
       <r>   -0.6050    1.0000 </r>
       <r>   -0.4055    1.0000 </r>
       <r>    0.0690    1.0000 </r>
       <r>    0.1493    1.0000 </r>
       <r>    2.9206    0.0000 </r>
       <r>    3.2978    0.0000 </r>
       <r>    3.4578    0.0000 </r>
       <r>    3.8998    0.0000 </r>
       <r>    4.0714    0.0000 </r>
       <r>    4.6202    0.0000 </r>
      </set>
      <set comment="kpoint 51">
       <r>  -11.6359    1.0000 </r>
       <r>  -11.4067    1.0000 </r>
       <r>  -11.2766    1.0000 </r>
       <r>  -11.1211    1.0000 </r>
       <r>   -5.3100    1.0000 </r>
       <r>   -4.7791    1.0000 </r>
       <r>   -4.0309    1.0000 </r>
       <r>   -3.8319    1.0000 </r>
       <r>   -3.3674    1.0000 </r>
       <r>   -3.0229    1.0000 </r>
       <r>   -2.2893    1.0000 </r>
       <r>   -2.2149    1.0000 </r>
       <r>   -1.0540    1.0000 </r>
       <r>   -0.8757    1.0000 </r>
       <r>   -0.2154    1.0000 </r>
       <r>   -0.0648    1.0000 </r>
       <r>    0.1036    1.0000 </r>
       <r>    0.2505    1.0000 </r>
       <r>    3.0979    0.0000 </r>
       <r>    3.5803    0.0000 </r>
[...]
        <r>  0.0001  0.0011  0.0007  0.0011  0.0000  0.0000  0.0000  0.0000  0.0000 </r>
        <r>  0.0002  0.0002  0.0009  0.0025  0.0000  0.0000  0.0000  0.0000  0.0000 </r>
        <r>  0.0019  0.0186  0.0085  0.0526  0.0000  0.0000  0.0000  0.0000  0.0000 </r>
        <r>  0.0019  0.0202  0.0086  0.0518  0.0000  0.0000  0.0000  0.0000  0.0000 </r>
        <r>  0.0035  0.0034  0.0000  0.0027  0.2151  0.0000  0.1666  0.0000  0.2323 </r>
        <r>  0.0001  0.0004  0.0002  0.0001  0.0042  0.0002  0.0045  0.0002  0.0080 </r>
       </set>
       <set comment="band 18">
        <r>  0.0022  0.0222  0.0096  0.0538  0.0000  0.0000  0.0000  0.0000  0.0000 </r>
        <r>  0.0020  0.0237  0.0097  0.0516  0.0000  0.0000  0.0000  0.0000  0.0000 </r>
        <r>  0.0001  0.0020  0.0009  0.0013  0.0000  0.0000  0.0000  0.0000  0.0000 </r>
        <r>  0.0001  0.0003  0.0007  0.0021  0.0000  0.0000  0.0000  0.0000  0.0000 </r>
        <r>  0.0002  0.0000  0.0003  0.0001  0.0084  0.0004  0.0057  0.0004  0.0050 </r>
        <r>  0.0048  0.0048  0.0000  0.0024  0.1848  0.0000  0.1721  0.0000  0.2287 </r>
       </set>
       <set comment="band 19">
        <r>  0.0000  0.0028  0.0052  0.0010  0.0000  0.0000  0.0000  0.0000  0.0000 </r>
        <r>  0.0037  0.0031  0.0021  0.0016  0.0000  0.0000  0.0000  0.0000  0.0000 </r>
        <r>  0.0039  0.0193  0.0301  0.0131  0.0000  0.0000  0.0000  0.0000  0.0000 </r>
        <r>  0.0011  0.0173  0.0311  0.0107  0.0000  0.0000  0.0000  0.0000  0.0000 </r>
        <r>  0.0004  0.0143  0.0000  0.0059  0.1589  0.0012  0.2202  0.0024  0.0998 </r>
        <r>  0.0003  0.0018  0.0002  0.0009  0.0278  0.0036  0.0393  0.0045  0.0189 </r>
       </set>
       <set comment="band 20">
        <r>  0.0003  0.0039  0.0057  0.0009  0.0000  0.0000  0.0000  0.0000  0.0000 </r>
        <r>  0.0005  0.0034  0.0056  0.0023  0.0000  0.0000  0.0000  0.0000  0.0000 </r>
        <r>  0.0018  0.0091  0.0001  0.0188  0.0000  0.0000  0.0000  0.0000  0.0000 </r>
        <r>  0.0002  0.0076  0.0006  0.0182  0.0000  0.0000  0.0000  0.0000  0.0000 </r>
        <r>  0.0212  0.0004  0.0001  0.0003  0.3543  0.0039  0.2340  0.0074  0.0983 </r>
        <r>  0.0004  0.0035  0.0000  0.0011  0.0352  0.0001  0.0343  0.0007  0.0158 </r>
       </set>
       <set comment="band 21">
        <r>  0.0018  0.0145  0.0231  0.0085  0.0000  0.0000  0.0000  0.0000  0.0000 </r>
        <r>  0.0005  0.0154  0.0232  0.0068  0.0000  0.0000  0.0000  0.0000  0.0000 </r>
        <r>  0.0013  0.0053  0.0065  0.0012  0.0000  0.0000  0.0000  0.0000  0.0000 </r>
        <r>  0.0040  0.0134  0.0160  0.0060  0.0000  0.0000  0.0000  0.0000  0.0000 </r>
        <r>  0.0060  0.0059  0.0007  0.0015  0.0745  0.0169  0.0466  0.0344  0.0989 </r>
        <r>  0.0007  0.0130  0.0001  0.0055  0.1126  0.0004  0.1338  0.0008  0.0690 </r>
       </set>
       <set comment="band 22">
        <r>  0.0023  0.0066  0.0076  0.0085  0.0000  0.0000  0.0000  0.0000  0.0000 </r>
        <r>  0.0018  0.0022  0.0034  0.0039  0.0000  0.0000  0.0000  0.0000  0.0000 </r>
        <r>  0.0079  0.0101  0.0124  0.0328  0.0000  0.0000  0.0000  0.0000  0.0000 </r>
        <r>  0.0089  0.0082  0.0098  0.0387  0.0000  0.0000  0.0000  0.0000  0.0000 </r>
        <r>  0.0000  0.0001  0.0027  0.0000  0.0002  0.0922  0.0007  0.3043  0.0002 </r>
        <r>  0.0010  0.0020  0.0007  0.0012  0.0284  0.0147  0.0580  0.0403  0.0085 </r>
       </set>
       <set comment="band 23">
        <r>  0.0011  0.0097  0.0008  0.0108  0.0000  0.0000  0.0000  0.0000  0.0000 </r>
        <r>  0.0001  0.0075  0.0002  0.0088  0.0000  0.0000  0.0000  0.0000  0.0000 </r>
        <r>  0.0008  0.0007  0.0010  0.0017  0.0000  0.0000  0.0000  0.0000  0.0000 </r>
        <r>  0.0005  0.0004  0.0007  0.0007  0.0000  0.0000  0.0000  0.0000  0.0000 </r>
        <r>  0.0000  0.0000  0.0001  0.0001  0.0002  0.0081  0.0001  0.0109  0.0002 </r>
        <r>  0.0386  0.0018  0.0001  0.0001  0.4113  0.0014  0.2279  0.0038  0.1604 </r>
       </set>
       <set comment="band 24">
        <r>  0.0108  0.0073  0.0064  0.0338  0.0000  0.0000  0.0000  0.0000  0.0000 </r>
        <r>  0.0102  0.0155  0.0169  0.0410  0.0000  0.0000  0.0000  0.0000  0.0000 </r>
        <r>  0.0004  0.0055  0.0098  0.0108  0.0000  0.0000  0.0000  0.0000  0.0000 </r>
        <r>  0.0009  0.0004  0.0003  0.0037  0.0000  0.0000  0.0000  0.0000  0.0000 </r>
        <r>  0.0001  0.0008  0.0002  0.0006  0.0041  0.0140  0.0018  0.0414  0.0051 </r>
        <r>  0.0001  0.0005  0.0035  0.0002  0.0014  0.1139  0.0016  0.3382  0.0025 </r>
       </set>
      </set>
      <set comment="kpoint 61">
       <set comment="band 1">
        <r>  0.2638  0.0013  0.0063  0.0001  0.0000  0.0000  0.0000  0.0000  0.0000 </r>
        <r>  0.3309  0.0015  0.0070  0.0001  0.0000  0.0000  0.0000  0.0000  0.0000 </r>
        <r>  0.0139  0.0001  0.0001  0.0000  0.0000  0.0000  0.0000  0.0000  0.0000 </r>
        <r>  0.0019  0.0000  0.0001  0.0000  0.0000  0.0000  0.0000  0.0000  0.0000 </r>
        <r>  0.0006  0.0008  0.0001  0.0001  0.0000  0.0003  0.0000  0.0000  0.0007 </r>
        <r>  0.0436  0.0480  0.0000  0.0032  0.0029  0.0003  0.0005  0.0000  0.0443 </r>
       </set>
       <set comment="band 2">
        <r>  0.0351  0.0001  0.0005  0.0000  0.0000  0.0000  0.0000  0.0000  0.0000 </r>
        <r>  0.0002  0.0000  0.0001  0.0000  0.0000  0.0000  0.0000  0.0000  0.0000 </r>
        <r>  0.3255  0.0011  0.0056  0.0001  0.0000  0.0000  0.0000  0.0000  0.0000 </r>
        <r>  0.2683  0.0010  0.0051  0.0001  0.0000  0.0000  0.0000  0.0000  0.0000 </r>
        <r>  0.0287  0.0407  0.0000  0.0027  0.0024  0.0002  0.0004  0.0000  0.0368 </r>
        <r>  0.0011  0.0013  0.0004  0.0001  0.0001  0.0032  0.0000  0.0002  0.0013 </r>
       </set>
       <set comment="band 3">
        <r>  0.3228  0.0007  0.0032  0.0001  0.0000  0.0000  0.0000  0.0000  0.0000 </r>
        <r>  0.2760  0.0007  0.0024  0.0001  0.0000  0.0000  0.0000  0.0000  0.0000 </r>
        <r>  0.0001  0.0000  0.0001  0.0000  0.0000  0.0000  0.0000  0.0000  0.0000 </r>
        <r>  0.0511  0.0001  0.0006  0.0000  0.0000  0.0000  0.0000  0.0000  0.0000 </r>
        <r>  0.0011  0.0017  0.0005  0.0001  0.0001  0.0039  0.0000  0.0002  0.0016 </r>
        <r>  0.0001  0.0001  0.0114  0.0000  0.0000  0.1042  0.0000  0.0052  0.0001 </r>
       </set>
       <set comment="band 4">
        <r>  0.0090  0.0000  0.0001  0.0000  0.0000  0.0000  0.0000  0.0000  0.0000 </r>
        <r>  0.0233  0.0000  0.0005  0.0000  0.0000  0.0000  0.0000  0.0000  0.0000 </r>
        <r>  0.3032  0.0007  0.0022  0.0001  0.0000  0.0000  0.0000  0.0000  0.0000 </r>
        <r>  0.3219  0.0007  0.0025  0.0001  0.0000  0.0000  0.0000  0.0000  0.0000 </r>
        <r>  0.0000  0.0000  0.0103  0.0000  0.0000  0.0946  0.0000  0.0048  0.0000 </r>
        <r>  0.0001  0.0002  0.0005  0.0000  0.0000  0.0057  0.0000  0.0003  0.0002 </r>
       </set>
       <set comment="band 5">
        <r>  0.0096  0.1262  0.0096  0.0010  0.0000  0.0000  0.0000  0.0000  0.0000 </r>
        <r>  0.0090  0.1394  0.0113  0.0010  0.0000  0.0000  0.0000  0.0000  0.0000 </r>
        <r>  0.0001  0.0043  0.0019  0.0000  0.0000  0.0000  0.0000  0.0000  0.0000 </r>
        <r>  0.0002  0.0015  0.0003  0.0000  0.0000  0.0000  0.0000  0.0000  0.0000 </r>
        <r>  0.0018  0.0002  0.0001  0.0001  0.0000  0.0002  0.0005  0.0001  0.0036 </r>
        <r>  0.1329  0.0241  0.0000  0.0044  0.0022  0.0001  0.0244  0.0000  0.1283 </r>
       </set>
       <set comment="band 6">
        <r>  0.0002  0.0072  0.0001  0.0000  0.0000  0.0000  0.0000  0.0000  0.0000 </r>
        <r>  0.0004  0.0022  0.0010  0.0001  0.0000  0.0000  0.0000  0.0000  0.0000 </r>
        <r>  0.0047  0.1416  0.0142  0.0012  0.0000  0.0000  0.0000  0.0000  0.0000 </r>
        <r>  0.0051  0.1290  0.0132  0.0011  0.0000  0.0000  0.0000  0.0000  0.0000 </r>
        <r>  0.0866  0.0209  0.0000  0.0043  0.0026  0.0001  0.0313  0.0000  0.1372 </r>
        <r>  0.0042  0.0017  0.0002  0.0000  0.0002  0.0007  0.0010  0.0002  0.0017 </r>
       </set>
       <set comment="band 7">
        <r>  0.0049  0.1320  0.0040  0.0090  0.0000  0.0000  0.0000  0.0000  0.0000 </r>
        <r>  0.0101  0.1410  0.0210  0.0080  0.0000  0.0000  0.0000  0.0000  0.0000 </r>
        <r>  0.0015  0.0169  0.0117  0.0003  0.0000  0.0000  0.0000  0.0000  0.0000 </r>
        <r>  0.0001  0.0120  0.0000  0.0005  0.0000  0.0000  0.0000  0.0000  0.0000 </r>
        <r>  0.0022  0.0016  0.0029  0.0000  0.0002  0.0180  0.0014  0.0021  0.0008 </r>
        <r>  0.0007  0.0006  0.0424  0.0001  0.0001  0.1396  0.0007  0.0441  0.0015 </r>
       </set>
       <set comment="band 8">
        <r>  0.0037  0.0255  0.0084  0.0016  0.0000  0.0000  0.0000  0.0000  0.0000 </r>
        <r>  0.0002  0.0120  0.0069  0.0029  0.0000  0.0000  0.0000  0.0000  0.0000 </r>
        <r>  0.0079  0.1220  0.0090  0.0091  0.0000  0.0000  0.0000  0.0000  0.0000 </r>
        <r>  0.0061  0.1406  0.0074  0.0093  0.0000  0.0000  0.0000  0.0000  0.0000 </r>
        <r>  0.0002  0.0000  0.0351  0.0000  0.0000  0.1290  0.0001  0.0472  0.0008 </r>
        <r>  0.0023  0.0035  0.0058  0.0002  0.0006  0.0110  0.0043  0.0099  0.0047 </r>
       </set>
       <set comment="band 9">
        <r>  0.0218  0.0231  0.0963  0.0008  0.0000  0.0000  0.0000  0.0000  0.0000 </r>
        <r>  0.0158  0.0081  0.0948  0.0040  0.0000  0.0000  0.0000  0.0000  0.0000 </r>
        <r>  0.0012  0.0101  0.0235  0.0051  0.0000  0.0000  0.0000  0.0000  0.0000 </r>
        <r>  0.0081  0.0216  0.0247  0.0016  0.0000  0.0000  0.0000  0.0000  0.0000 </r>
        <r>  0.0079  0.0068  0.0031  0.0009  0.0012  0.0089  0.0126  0.0123  0.0256 </r>
        <r>  0.0241  0.0331  0.0005  0.0038  0.0064  0.0015  0.0661  0.0021  0.0984 </r>
       </set>
       <set comment="band 10">
        <r>  0.0042  0.0017  0.0324  0.0061  0.0000  0.0000  0.0000  0.0000  0.0000 </r>
        <r>  0.0076  0.0108  0.0182  0.0019  0.0000  0.0000  0.0000  0.0000  0.0000 </r>
        <r>  0.0195  0.0253  0.0926  0.0008  0.0000  0.0000  0.0000  0.0000  0.0000 </r>
        <r>  0.0164  0.0185  0.1016  0.0041  0.0000  0.0000  0.0000  0.0000  0.0000 </r>
        <r>  0.0227  0.0315  0.0001  0.0033  0.0071  0.0002  0.0777  0.0018  0.1047 </r>
        <r>  0.0057  0.0097  0.0004  0.0010  0.0022  0.0007  0.0226  0.0105  0.0269 </r>
       </set>
       <set comment="band 11">
        <r>  0.0014  0.0065  0.0222  0.1138  0.0000  0.0000  0.0000  0.0000  0.0000 </r>
        <r>  0.0005  0.0060  0.0157  0.1137  0.0000  0.0000  0.0000  0.0000  0.0000 </r>
        <r>  0.0002  0.0012  0.0022  0.0258  0.0000  0.0000  0.0000  0.0000  0.0000 </r>
        <r>  0.0011  0.0007  0.0153  0.0310  0.0000  0.0000  0.0000  0.0000  0.0000 </r>
        <r>  0.0002  0.0003  0.0010  0.0002  0.0002  0.0061  0.0028  0.0807  0.0035 </r>
        <r>  0.0000  0.0000  0.0095  0.0000  0.0000  0.0212  0.0003  0.2818  0.0005 </r>
       </set>
       <set comment="band 12">
        <r>  0.0000  0.0044  0.0002  0.0282  0.0000  0.0000  0.0000  0.0000  0.0000 </r>
        <r>  0.0014  0.0062  0.0046  0.0370  0.0000  0.0000  0.0000  0.0000  0.0000 </r>
        <r>  0.0020  0.0111  0.0185  0.1163  0.0000  0.0000  0.0000  0.0000  0.0000 </r>
        <r>  0.0005  0.0102  0.0100  0.1050  0.0000  0.0000  0.0000  0.0000  0.0000 </r>
        <r>  0.0001  0.0001  0.0115  0.0001  0.0001  0.0220  0.0008  0.2873  0.0009 </r>
        <r>  0.0002  0.0001  0.0060  0.0002  0.0002  0.0045  0.0020  0.0718  0.0024 </r>
       </set>
       <set comment="band 13">
        <r>  0.0010  0.0104  0.0222  0.0378  0.0000  0.0000  0.0000  0.0000  0.0000 </r>
        <r>  0.0108  0.0090  0.1105  0.0944  0.0000  0.0000  0.0000  0.0000  0.0000 </r>
        <r>  0.0055  0.0074  0.0640  0.0173  0.0000  0.0000  0.0000  0.0000  0.0000 </r>
        <r>  0.0017  0.0084  0.0268  0.0056  0.0000  0.0000  0.0000  0.0000  0.0000 </r>
        <r>  0.0008  0.0034  0.0080  0.0018  0.0014  0.0378  0.0027  0.0096  0.0048 </r>
        <r>  0.0087  0.0205  0.0112  0.0188  0.0122  0.0425  0.0257  0.0068  0.0176 </r>
       </set>
       <set comment="band 14">
        <r>  0.0135  0.0157  0.1394  0.1493  0.0000  0.0000  0.0000  0.0000  0.0000 </r>
        <r>  0.0013  0.0156  0.0322  0.0558  0.0000  0.0000  0.0000  0.0000  0.0000 </r>
        <r>  0.0007  0.0006  0.0067  0.0063  0.0000  0.0000  0.0000  0.0000  0.0000 </r>
        <r>  0.0006  0.0004  0.0049  0.0037  0.0000  0.0000  0.0000  0.0000  0.0000 </r>
        <r>  0.0011  0.0007  0.0006  0.0011  0.0016  0.0065  0.0016  0.0003  0.0008 </r>
        <r>  0.0134  0.0244  0.0165  0.0282  0.0187  0.0529  0.0384  0.0061  0.0137 </r>
       </set>
       <set comment="band 15">
        <r>  0.0012  0.0053  0.0230  0.0026  0.0000  0.0000  0.0000  0.0000  0.0000 </r>
        <r>  0.0014  0.0084  0.0250  0.0156  0.0000  0.0000  0.0000  0.0000  0.0000 </r>
        <r>  0.0022  0.0287  0.0621  0.0134  0.0000  0.0000  0.0000  0.0000  0.0000 </r>
        <r>  0.0124  0.0270  0.1675  0.0800  0.0000  0.0000  0.0000  0.0000  0.0000 </r>
        <r>  0.0040  0.0104  0.0250  0.0091  0.0088  0.0806  0.0159  0.0057  0.0070 </r>
        <r>  0.0005  0.0020  0.0070  0.0020  0.0008  0.0124  0.0025  0.0008  0.0002 </r>
       </set>
       <set comment="band 16">
        <r>  0.0006  0.0076  0.0200  0.0046  0.0000  0.0000  0.0000  0.0000  0.0000 </r>
        <r>  0.0029  0.0059  0.0350  0.0216  0.0000  0.0000  0.0000  0.0000  0.0000 </r>
        <r>  0.0067  0.0060  0.0653  0.1519  0.0000  0.0000  0.0000  0.0000  0.0000 </r>
        <r>  0.0005  0.0062  0.0005  0.1052  0.0000  0.0000  0.0000  0.0000  0.0000 </r>
        <r>  0.0137  0.0267  0.0040  0.0304  0.0320  0.0130  0.0614  0.0003  0.0125 </r>
        <r>  0.0021  0.0017  0.0068  0.0033  0.0031  0.0177  0.0055  0.0002  0.0012 </r>
       </set>
       <set comment="band 17">
        <r>  0.0009  0.0056  0.0167  0.0316  0.0000  0.0000  0.0000  0.0000  0.0000 </r>
        <r>  0.0008  0.0025  0.0100  0.0354  0.0000  0.0000  0.0000  0.0000  0.0000 </r>
        <r>  0.0008  0.0023  0.0126  0.0429  0.0000  0.0000  0.0000  0.0000  0.0000 </r>
        <r>  0.0011  0.0058  0.0227  0.0379  0.0000  0.0000  0.0000  0.0000  0.0000 </r>
        <r>  0.0021  0.0189  0.0002  0.0079  0.0774  0.0002  0.0907  0.0000  0.1015 </r>
        <r>  0.0021  0.0185  0.0002  0.0072  0.0460  0.0002  0.0671  0.0000  0.0816 </r>
       </set>
       <set comment="band 18">
        <r>  0.0009  0.0043  0.0134  0.0388  0.0000  0.0000  0.0000  0.0000  0.0000 </r>
        <r>  0.0009  0.0077  0.0201  0.0344  0.0000  0.0000  0.0000  0.0000  0.0000 </r>
        <r>  0.0008  0.0057  0.0188  0.0234  0.0000  0.0000  0.0000  0.0000  0.0000 </r>
        <r>  0.0006  0.0021  0.0099  0.0278  0.0000  0.0000  0.0000  0.0000  0.0000 </r>
        <r>  0.0018  0.0142  0.0002  0.0051  0.0672  0.0003  0.0921  0.0000  0.0739 </r>
        <r>  0.0027  0.0226  0.0001  0.0079  0.0645  0.0002  0.1073  0.0000  0.1001 </r>
       </set>
       <set comment="band 19">
        <r>  0.0000  0.0003  0.0003  0.0002  0.0000  0.0000  0.0000  0.0000  0.0000 </r>
        <r>  0.0010  0.0003  0.0001  0.0002  0.0000  0.0000  0.0000  0.0000  0.0000 </r>
        <r>  0.0011  0.0075  0.0140  0.0293  0.0000  0.0000  0.0000  0.0000  0.0000 </r>
        <r>  0.0006  0.0071  0.0150  0.0277  0.0000  0.0000  0.0000  0.0000  0.0000 </r>
        <r>  0.0006  0.0064  0.0000  0.0059  0.5746  0.0001  0.1240  0.0001  0.0206 </r>
        <r>  0.0001  0.0002  0.0001  0.0001  0.0058  0.0019  0.0061  0.0005  0.0021 </r>
       </set>
       <set comment="band 20">
        <r>  0.0001  0.0019  0.0018  0.0006  0.0000  0.0000  0.0000  0.0000  0.0000 </r>
        <r>  0.0015  0.0016  0.0009  0.0016  0.0000  0.0000  0.0000  0.0000  0.0000 </r>
        <r>  0.0024  0.0221  0.0052  0.0043  0.0000  0.0000  0.0000  0.0000  0.0000 </r>
        <r>  0.0011  0.0229  0.0051  0.0049  0.0000  0.0000  0.0000  0.0000  0.0000 </r>
        <r>  0.0153  0.0055  0.0000  0.0001  0.1570  0.0007  0.3228  0.0004  0.2122 </r>
        <r>  0.0001  0.0004  0.0002  0.0003  0.0440  0.0009  0.0224  0.0008  0.0074 </r>
       </set>
       <set comment="band 21">
        <r>  0.0010  0.0104  0.0147  0.0181  0.0000  0.0000  0.0000  0.0000  0.0000 </r>
        <r>  0.0005  0.0109  0.0150  0.0169  0.0000  0.0000  0.0000  0.0000  0.0000 </r>
        <r>  0.0011  0.0043  0.0027  0.0002  0.0000  0.0000  0.0000  0.0000  0.0000 </r>
        <r>  0.0010  0.0047  0.0046  0.0011  0.0000  0.0000  0.0000  0.0000  0.0000 </r>
        <r>  0.0019  0.0022  0.0004  0.0001  0.0087  0.0087  0.0420  0.0037  0.0341 </r>
        <r>  0.0001  0.0070  0.0000  0.0050  0.4629  0.0002  0.1239  0.0000  0.0309 </r>
       </set>
       <set comment="band 22">
        <r>  0.0008  0.0189  0.0023  0.0046  0.0000  0.0000  0.0000  0.0000  0.0000 </r>
        <r>  0.0011  0.0190  0.0024  0.0052  0.0000  0.0000  0.0000  0.0000  0.0000 </r>
        <r>  0.0017  0.0005  0.0005  0.0009  0.0000  0.0000  0.0000  0.0000  0.0000 </r>
        <r>  0.0008  0.0005  0.0023  0.0027  0.0000  0.0000  0.0000  0.0000  0.0000 </r>
        <r>  0.0003  0.0004  0.0005  0.0001  0.0011  0.0083  0.0022  0.0121  0.0021 </r>
        <r>  0.0287  0.0041  0.0000  0.0002  0.2543  0.0001  0.3178  0.0001  0.1799 </r>
       </set>
       <set comment="band 23">
        <r>  0.0026  0.0037  0.0061  0.0048  0.0000  0.0000  0.0000  0.0000  0.0000 </r>
        <r>  0.0039  0.0014  0.0006  0.0014  0.0000  0.0000  0.0000  0.0000  0.0000 </r>
        <r>  0.0142  0.0043  0.0258  0.0454  0.0000  0.0000  0.0000  0.0000  0.0000 </r>
        <r>  0.0140  0.0036  0.0275  0.0480  0.0000  0.0000  0.0000  0.0000  0.0000 </r>
        <r>  0.0000  0.0000  0.0066  0.0000  0.0001  0.1620  0.0000  0.2440  0.0001 </r>
        <r>  0.0011  0.0015  0.0013  0.0003  0.0067  0.0263  0.0205  0.0222  0.0137 </r>
       </set>
       <set comment="band 24">
        <r>  0.0045  0.0021  0.0091  0.0077  0.0000  0.0000  0.0000  0.0000  0.0000 </r>
        <r>  0.0049  0.0031  0.0078  0.0085  0.0000  0.0000  0.0000  0.0000  0.0000 </r>
        <r>  0.0086  0.0099  0.0263  0.0591  0.0000  0.0000  0.0000  0.0000  0.0000 </r>
        <r>  0.0076  0.0069  0.0295  0.0646  0.0000  0.0000  0.0000  0.0000  0.0000 </r>
        <r>  0.0001  0.0003  0.0005  0.0001  0.0004  0.2189  0.0005  0.1393  0.0003 </r>
        <r>  0.0001  0.0005  0.0018  0.0003  0.0008  0.0821  0.0014  0.0139  0.0001 </r>
       </set>
      </set>
     </set>
    </set>
   </array>
  </projected>
 </calculation>
 <structure name="finalpos" >
  <crystal>
   <varray name="basis" >
    <v>       3.18650000       0.00000000       0.00000000 </v>
    <v>      -1.59325000       2.75958995       0.00000000 </v>
    <v>       0.00000000       0.00000000      20.00000000 </v>
   </varray>
   <i name="volume">    175.86866745 </i>
   <varray name="rec_basis" >
    <v>       0.31382394       0.18118634       0.00000000 </v>
    <v>       0.00000000       0.36237268       0.00000000 </v>
    <v>       0.00000000       0.00000000       0.05000000 </v>
   </varray>
  </crystal>
  <varray name="positions" >
   <v>       0.65902527       0.34587942       0.69283634 </v>
   <v>       0.65905005       0.34586411       0.53651181 </v>
   <v>       0.99788073       0.00109173       0.38437599 </v>
   <v>       0.99783320       0.00099507       0.22844737 </v>
   <v>       0.66436778       0.33429416       0.30644433 </v>
   <v>       0.99243815       0.01248506       0.61460282 </v>
  </varray>
  <varray name="selective"  type="logical" >
   <v type="logical" >  T  T  T </v>
   <v type="logical" >  T  T  T </v>
   <v type="logical" >  T  T  T </v>
   <v type="logical" >  T  T  T </v>
   <v type="logical" >  T  T  T </v>
   <v type="logical" >  T  T  T </v>
  </varray>
  <nose>
   <v>      -3.00000000       0.00000000       0.00010000       0.00010000 </v>
  </nose>
 </structure>
</modeling>
