   6   6   0   0
  0.2931144E+02  0.3186500E-09  0.3186500E-09  0.2000000E-08  0.5000000E-15
  1.000000000000000E-004
  CAR 
 VaspCalc                                
      6.15684901    -14.64594008  301      1.92721943      1.00000000
    -14.646  0.0000E+00  0.0000E+00
    -14.577  0.0000E+00  0.0000E+00
    -14.507  0.0000E+00  0.0000E+00
    -14.438  0.0000E+00  0.0000E+00
    -14.369  0.0000E+00  0.0000E+00
    -14.299  0.0000E+00  0.0000E+00
    -14.230  0.1323E-19  0.9175E-21
    -14.161  0.4050E-16  0.2810E-17
    -14.091  0.3615E-13  0.2509E-14
    -14.022  0.1259E-10  0.8754E-12
    -13.953  0.1720E-08  0.1202E-09
    -13.883  0.9302E-07  0.6570E-08
    -13.814  0.2018E-05  0.1465E-06
    -13.744  0.1823E-04  0.1410E-05
    -13.675  0.7783E-04  0.6807E-05
    -13.606  0.2166E-03  0.2183E-04
    -13.536  0.4581E-03  0.5359E-04
    -13.467  0.5447E-03  0.9136E-04
    -13.398  0.3269E-03  0.1140E-03
    -13.328  0.2950E-03  0.1345E-03
    -13.259  0.5938E-03  0.1757E-03
    -13.190  0.8444E-03  0.2342E-03
    -13.120  0.9469E-03  0.2999E-03
    -13.051  0.9027E-03  0.3625E-03
    -12.982  0.6810E-03  0.4097E-03
    -12.912  0.5743E-03  0.4495E-03
    -12.843  0.1181E-02  0.5314E-03
    -12.774  0.1852E-02  0.6598E-03
    -12.704  0.1595E-02  0.7705E-03
    -12.635  0.1092E-02  0.8462E-03
    -12.566  0.7783E-03  0.9002E-03
    -12.496  0.6553E-03  0.9456E-03
    -12.427  0.1070E-02  0.1020E-02
    -12.358  0.1602E-02  0.1131E-02
    -12.288  0.1949E-02  0.1266E-02
    -12.219  0.2064E-02  0.1409E-02
    -12.150  0.1492E-02  0.1513E-02
    -12.080  0.1316E-02  0.1604E-02
    -12.011  0.2139E-02  0.1752E-02
    -11.942  0.3057E-02  0.1964E-02
    -11.872  0.3619E-02  0.2215E-02
    -11.803  0.4310E-02  0.2514E-02
    -11.734  0.5186E-02  0.2874E-02
    -11.664  0.5021E-02  0.3222E-02
    -11.595  0.4947E-02  0.3565E-02
    -11.526  0.6721E-02  0.4031E-02
    -11.456  0.7792E-02  0.4571E-02
    -11.387  0.7146E-02  0.5067E-02
    -11.317  0.7815E-02  0.5609E-02
    -11.248  0.8697E-02  0.6212E-02
    -11.179  0.8151E-02  0.6777E-02
    -11.109  0.7150E-02  0.7273E-02
    -11.040  0.5292E-02  0.7640E-02
    -10.971  0.3196E-02  0.7861E-02
    -10.901  0.1487E-02  0.7964E-02
    -10.832  0.4397E-03  0.7995E-02
    -10.763  0.6958E-04  0.8000E-02
    -10.693  0.5187E-05  0.8000E-02
    -10.624  0.1671E-06  0.8000E-02
    -10.555  0.2210E-08  0.8000E-02
    -10.485  0.1169E-10  0.8000E-02
    -10.416  0.2433E-13  0.8000E-02
    -10.347  0.1974E-16  0.8000E-02
    -10.277  0.0000E+00  0.8000E-02
    -10.208  0.0000E+00  0.8000E-02
    -10.139  0.0000E+00  0.8000E-02
    -10.069  0.0000E+00  0.8000E-02
    -10.000  0.0000E+00  0.8000E-02
     -9.931  0.0000E+00  0.8000E-02
     -9.861  0.0000E+00  0.8000E-02
     -9.792  0.0000E+00  0.8000E-02
     -9.723  0.0000E+00  0.8000E-02
     -9.653  0.0000E+00  0.8000E-02
     -9.584  0.0000E+00  0.8000E-02
     -9.515  0.0000E+00  0.8000E-02
     -9.445  0.0000E+00  0.8000E-02
     -9.376  0.0000E+00  0.8000E-02
     -9.307  0.0000E+00  0.8000E-02
     -9.237  0.0000E+00  0.8000E-02
     -9.168  0.0000E+00  0.8000E-02
     -9.099  0.0000E+00  0.8000E-02
     -9.029  0.0000E+00  0.8000E-02
     -8.960  0.0000E+00  0.8000E-02
     -8.891  0.0000E+00  0.8000E-02
     -8.821  0.0000E+00  0.8000E-02
     -8.752  0.0000E+00  0.8000E-02
     -8.682  0.0000E+00  0.8000E-02
     -8.613  0.0000E+00  0.8000E-02
     -8.544  0.0000E+00  0.8000E-02
     -8.474  0.0000E+00  0.8000E-02
     -8.405  0.0000E+00  0.8000E-02
     -8.336  0.0000E+00  0.8000E-02
     -8.266  0.0000E+00  0.8000E-02
     -8.197  0.0000E+00  0.8000E-02
     -8.128  0.0000E+00  0.8000E-02
     -8.058  0.0000E+00  0.8000E-02
     -7.989  0.0000E+00  0.8000E-02
     -7.920  0.0000E+00  0.8000E-02
     -7.850  0.0000E+00  0.8000E-02
     -7.781  0.0000E+00  0.8000E-02
     -7.712  0.0000E+00  0.8000E-02
     -7.642  0.0000E+00  0.8000E-02
     -7.573  0.0000E+00  0.8000E-02
     -7.504  0.0000E+00  0.8000E-02
     -7.434  0.0000E+00  0.8000E-02
     -7.365  0.0000E+00  0.8000E-02
     -7.296  0.0000E+00  0.8000E-02
     -7.226  0.0000E+00  0.8000E-02
     -7.157  0.0000E+00  0.8000E-02
     -7.088  0.0000E+00  0.8000E-02
     -7.018  0.0000E+00  0.8000E-02
     -6.949  0.0000E+00  0.8000E-02
     -6.880  0.0000E+00  0.8000E-02
     -6.810  0.0000E+00  0.8000E-02
     -6.741  0.0000E+00  0.8000E-02
     -6.672  0.0000E+00  0.8000E-02
     -6.602  0.0000E+00  0.8000E-02
     -6.533  0.0000E+00  0.8000E-02
     -6.464  0.0000E+00  0.8000E-02
     -6.394  0.0000E+00  0.8000E-02
     -6.325  0.0000E+00  0.8000E-02
     -6.255  0.0000E+00  0.8000E-02
     -6.186  0.0000E+00  0.8000E-02
     -6.117  0.0000E+00  0.8000E-02
     -6.047  0.0000E+00  0.8000E-02
     -5.978  0.0000E+00  0.8000E-02
     -5.909  0.1720E-18  0.8000E-02
     -5.839  0.3496E-15  0.8000E-02
     -5.770  0.2600E-12  0.8000E-02
     -5.701  0.7834E-10  0.8000E-02
     -5.631  0.9712E-08  0.8000E-02
     -5.562  0.5037E-06  0.8000E-02
     -5.493  0.1113E-04  0.8001E-02
     -5.423  0.1078E-03  0.8008E-02
     -5.354  0.4795E-03  0.8042E-02
     -5.285  0.1072E-02  0.8116E-02
     -5.215  0.1361E-02  0.8210E-02
     -5.146  0.1141E-02  0.8289E-02
     -5.077  0.1019E-02  0.8360E-02
     -5.007  0.1352E-02  0.8454E-02
     -4.938  0.1815E-02  0.8580E-02
     -4.869  0.2544E-02  0.8756E-02
     -4.799  0.2799E-02  0.8950E-02
     -4.730  0.2423E-02  0.9118E-02
     -4.661  0.2611E-02  0.9299E-02
     -4.591  0.4000E-02  0.9577E-02
     -4.522  0.5575E-02  0.9963E-02
     -4.453  0.6066E-02  0.1038E-01
     -4.383  0.5704E-02  0.1078E-01
     -4.314  0.5133E-02  0.1114E-01
     -4.245  0.5094E-02  0.1149E-01
     -4.175  0.5511E-02  0.1187E-01
     -4.106  0.5350E-02  0.1224E-01
     -4.037  0.4644E-02  0.1256E-01
     -3.967  0.4458E-02  0.1287E-01
     -3.898  0.4537E-02  0.1319E-01
     -3.828  0.4098E-02  0.1347E-01
     -3.759  0.3544E-02  0.1372E-01
     -3.690  0.2972E-02  0.1392E-01
     -3.620  0.2043E-02  0.1407E-01
     -3.551  0.1930E-02  0.1420E-01
     -3.482  0.2897E-02  0.1440E-01
     -3.412  0.3585E-02  0.1465E-01
     -3.343  0.4964E-02  0.1499E-01
     -3.274  0.6227E-02  0.1542E-01
     -3.204  0.5411E-02  0.1580E-01
     -3.135  0.4179E-02  0.1609E-01
     -3.066  0.4318E-02  0.1639E-01
     -2.996  0.5296E-02  0.1676E-01
     -2.927  0.6677E-02  0.1722E-01
     -2.858  0.7543E-02  0.1774E-01
     -2.788  0.6035E-02  0.1816E-01
     -2.719  0.3721E-02  0.1842E-01
     -2.650  0.3244E-02  0.1864E-01
     -2.580  0.3925E-02  0.1892E-01
     -2.511  0.4246E-02  0.1921E-01
     -2.442  0.4152E-02  0.1950E-01
     -2.372  0.5265E-02  0.1986E-01
     -2.303  0.7164E-02  0.2036E-01
     -2.234  0.8417E-02  0.2094E-01
     -2.164  0.8567E-02  0.2154E-01
     -2.095  0.7012E-02  0.2202E-01
     -2.026  0.5282E-02  0.2239E-01
     -1.956  0.4145E-02  0.2268E-01
     -1.887  0.3777E-02  0.2294E-01
     -1.818  0.3872E-02  0.2321E-01
     -1.748  0.4414E-02  0.2351E-01
     -1.679  0.4935E-02  0.2386E-01
     -1.610  0.4524E-02  0.2417E-01
     -1.540  0.3630E-02  0.2442E-01
     -1.471  0.2634E-02  0.2460E-01
     -1.401  0.2045E-02  0.2475E-01
     -1.332  0.2390E-02  0.2491E-01
     -1.263  0.3720E-02  0.2517E-01
     -1.193  0.5092E-02  0.2552E-01
     -1.124  0.5747E-02  0.2592E-01
     -1.055  0.6778E-02  0.2639E-01
     -0.985  0.7628E-02  0.2692E-01
     -0.916  0.7453E-02  0.2744E-01
     -0.847  0.7698E-02  0.2797E-01
     -0.777  0.7930E-02  0.2852E-01
     -0.708  0.7450E-02  0.2904E-01
     -0.639  0.6368E-02  0.2948E-01
     -0.569  0.4789E-02  0.2981E-01
     -0.500  0.3633E-02  0.3006E-01
     -0.431  0.3714E-02  0.3032E-01
     -0.361  0.4540E-02  0.3064E-01
     -0.292  0.4616E-02  0.3096E-01
     -0.223  0.3694E-02  0.3121E-01
     -0.153  0.2643E-02  0.3139E-01
     -0.084  0.2555E-02  0.3157E-01
     -0.015  0.3755E-02  0.3183E-01
      0.055  0.5180E-02  0.3219E-01
      0.124  0.5785E-02  0.3259E-01
      0.193  0.5744E-02  0.3299E-01
      0.263  0.6167E-02  0.3342E-01
      0.332  0.6463E-02  0.3387E-01
      0.401  0.5317E-02  0.3424E-01
      0.471  0.3678E-02  0.3449E-01
      0.540  0.3273E-02  0.3472E-01
      0.609  0.3493E-02  0.3496E-01
      0.679  0.3371E-02  0.3519E-01
      0.748  0.3082E-02  0.3541E-01
      0.817  0.2435E-02  0.3558E-01
      0.887  0.1602E-02  0.3569E-01
      0.956  0.1180E-02  0.3577E-01
      1.025  0.9807E-03  0.3584E-01
      1.095  0.5286E-03  0.3587E-01
      1.164  0.1690E-03  0.3589E-01
      1.234  0.2025E-03  0.3590E-01
      1.303  0.4730E-03  0.3593E-01
      1.372  0.5008E-03  0.3597E-01
      1.442  0.2564E-03  0.3598E-01
      1.511  0.1246E-03  0.3599E-01
      1.580  0.7123E-04  0.3600E-01
      1.650  0.2214E-04  0.3600E-01
      1.719  0.2895E-05  0.3600E-01
      1.788  0.1533E-06  0.3600E-01
      1.858  0.3245E-08  0.3600E-01
      1.927  0.2718E-10  0.3600E-01
      1.996  0.8941E-13  0.3600E-01
      2.066  0.1148E-15  0.3600E-01
      2.135  0.3006E-16  0.3600E-01
      2.204  0.3496E-13  0.3600E-01
      2.274  0.1588E-10  0.3600E-01
      2.343  0.2825E-08  0.3600E-01
      2.412  0.1984E-06  0.3600E-01
      2.482  0.5558E-05  0.3600E-01
      2.551  0.6330E-04  0.3600E-01
      2.620  0.3048E-03  0.3603E-01
      2.690  0.6859E-03  0.3607E-01
      2.759  0.9251E-03  0.3614E-01
      2.828  0.1294E-02  0.3623E-01
      2.898  0.2573E-02  0.3641E-01
      2.967  0.4266E-02  0.3670E-01
      3.036  0.5419E-02  0.3708E-01
      3.106  0.5835E-02  0.3748E-01
      3.175  0.5089E-02  0.3783E-01
      3.244  0.4596E-02  0.3815E-01
      3.314  0.5254E-02  0.3852E-01
      3.383  0.6225E-02  0.3895E-01
      3.452  0.7419E-02  0.3946E-01
      3.522  0.8323E-02  0.4004E-01
      3.591  0.8679E-02  0.4064E-01
      3.661  0.8127E-02  0.4121E-01
      3.730  0.7051E-02  0.4170E-01
      3.799  0.7335E-02  0.4220E-01
      3.869  0.9159E-02  0.4284E-01
      3.938  0.9292E-02  0.4348E-01
      4.007  0.7278E-02  0.4399E-01
      4.077  0.5815E-02  0.4439E-01
      4.146  0.5515E-02  0.4477E-01
      4.215  0.5241E-02  0.4514E-01
      4.285  0.3797E-02  0.4540E-01
      4.354  0.2440E-02  0.4557E-01
      4.423  0.2044E-02  0.4571E-01
      4.493  0.2864E-02  0.4591E-01
      4.562  0.4425E-02  0.4622E-01
      4.631  0.5387E-02  0.4659E-01
      4.701  0.4511E-02  0.4690E-01
      4.770  0.2832E-02  0.4710E-01
      4.839  0.1918E-02  0.4723E-01
      4.909  0.1887E-02  0.4736E-01
      4.978  0.2230E-02  0.4752E-01
      5.047  0.2594E-02  0.4770E-01
      5.117  0.2317E-02  0.4786E-01
      5.186  0.1377E-02  0.4795E-01
      5.255  0.5306E-03  0.4799E-01
      5.325  0.1168E-03  0.4800E-01
      5.394  0.1228E-04  0.4800E-01
      5.463  0.5510E-06  0.4800E-01
      5.533  0.1006E-07  0.4800E-01
      5.602  0.7295E-10  0.4800E-01
      5.671  0.2080E-12  0.4800E-01
      5.741  0.2317E-15  0.4800E-01
      5.810  0.0000E+00  0.4800E-01
      5.879  0.0000E+00  0.4800E-01
      5.949  0.0000E+00  0.4800E-01
      6.018  0.0000E+00  0.4800E-01
      6.088  0.0000E+00  0.4800E-01
      6.157  0.0000E+00  0.4800E-01
