    6    6 1000    1
  0.2931144E+02  0.3186500E-09  0.3186500E-09  0.2000000E-08  0.5000000E-15
  1.000000000000000E-004
  CAR 
 VaspCalc                                
     36     61     24
 
  0.0000000E+00  0.0000000E+00  0.0000000E+00  0.8264463E-02
    1      -13.645940   1.000000
    2      -13.152818   1.000000
    3      -12.107274   1.000000
    4      -11.867982   1.000000
    5       -5.344271   1.000000
    6       -4.595102   1.000000
    7       -1.768887   1.000000
    8       -1.768222   1.000000
    9       -1.703738   1.000000
   10       -1.702822   1.000000
   11       -1.400727   1.000000
   12       -0.591007   1.000000
   13       -0.587084   1.000000
   14       -0.527998   1.000000
   15       -0.525382   1.000000
   16       -0.348237   1.000000
   17        0.824336   1.000000
   18        1.491730   1.000000
   19        3.687031   0.000000
   20        3.691231   0.000000
   21        3.910075   0.000000
   22        3.915280   0.000000
   23        3.990962   0.000000
   24        3.997168   0.000000
 
  0.9090909E-01  0.0000000E+00  0.0000000E+00  0.1652893E-01
    1      -13.515541   1.000000
    2      -13.037226   1.000000
    3      -12.050422   1.000000
    4      -11.816539   1.000000
    5       -5.189837   1.000000
    6       -4.459074   1.000000
    7       -2.112520   1.000000
    8       -1.965764   1.000000
    9       -1.727362   1.000000
   10       -1.636917   1.000000
   11       -1.576300   1.000000
   12       -1.162940   1.000000
   13       -0.779748   1.000000
   14       -0.733527   1.000000
   15       -0.404998   1.000000
   16        0.000378   1.000000
   17        0.786699   1.000000
   18        1.305519   1.000000
   19        3.547121   0.000000
   20        3.645698   0.000000
   21        3.778185   0.000000
   22        3.867230   0.000000
   23        3.888262   0.000000
   24        3.928098   0.000000
 
  0.1818182E+00  0.0000000E+00  0.0000000E+00  0.1652893E-01
    1      -13.146562   1.000000
    2      -12.710800   1.000000
    3      -11.890618   1.000000
    4      -11.672123   1.000000
    5       -4.788238   1.000000
    6       -4.133980   1.000000
    7       -2.878798   1.000000
    8       -2.548883   1.000000
    9       -2.321520   1.000000
   10       -1.931319   1.000000
   11       -1.286194   1.000000
   12       -1.232814   1.000000
   13       -1.211350   1.000000
   14       -1.192646   1.000000
   15       -0.430583   1.000000
   16       -0.004862   1.000000
   17        0.551841   1.000000
   18        0.747114   1.000000
   19        3.170100   0.000000
   20        3.461859   0.000000
   21        3.476403   0.000000
   22        3.687305   0.000000
   23        3.791264   0.000000
   24        4.060146   0.000000
 
  0.2727273E+00  0.2775558E-16  0.0000000E+00  0.1652893E-01
    1      -12.609087   1.000000
    2      -12.238376   1.000000
    3      -11.662398   1.000000
    4      -11.466499   1.000000
    5       -4.474833   1.000000
    6       -4.050134   1.000000
    7       -3.492174   1.000000
    8       -3.060052   1.000000
    9       -2.875249   1.000000
   10       -2.681023   1.000000
   11       -1.711548   1.000000
   12       -1.663063   1.000000
   13       -0.815518   1.000000
   14       -0.748265   1.000000
   15       -0.707336   1.000000
   16       -0.350598   1.000000
   17        0.070719   1.000000
   18        0.168258   1.000000
   19        3.077887   0.000000
   20        3.202061   0.000000
   21        3.582654   0.000000
   22        3.630284   0.000000
   23        4.007316   0.000000
   24        4.553075   0.000000
 
  0.3636364E+00  0.0000000E+00  0.0000000E+00  0.1652893E-01
    1      -12.035127   1.000000
    2      -11.741921   1.000000
    3      -11.428711   1.000000
    4      -11.257201   1.000000
    5       -4.876095   1.000000
    6       -4.449393   1.000000
    7       -3.694948   1.000000
    8       -3.499218   1.000000
    9       -3.281018   1.000000
   10       -2.913022   1.000000
   11       -2.088355   1.000000
   12       -2.022318   1.000000
   13       -0.957080   1.000000
   14       -0.695807   1.000000
   15       -0.420163   1.000000
   16       -0.310353   1.000000
   17       -0.123040   1.000000
   18        0.033281   1.000000
   19        3.084256   0.000000
   20        3.316564   0.000000
   21        3.691086   0.000000
   22        3.880424   0.000000
   23        4.473689   0.000000
   24        5.041932   0.000000
 
  0.4545455E+00 -0.2775558E-16  0.0000000E+00  0.1652893E-01
    1      -11.636475   1.000000
    2      -11.406510   1.000000
    3      -11.276834   1.000000
    4      -11.121469   1.000000
    5       -5.310207   1.000000
    6       -4.779312   1.000000
    7       -4.029989   1.000000
    8       -3.832317   1.000000
    9       -3.369532   1.000000
   10       -3.021216   1.000000
   11       -2.289387   1.000000
   12       -2.213828   1.000000
   13       -1.047799   1.000000
   14       -0.881661   1.000000
   15       -0.215605   1.000000
   16       -0.064499   1.000000
   17        0.104515   1.000000
   18        0.247183   1.000000
   19        3.097286   0.000000
   20        3.579718   0.000000
   21        3.867359   0.000000
   22        4.278672   0.000000
   23        4.730523   0.000000
   24        5.155941   0.000000
 
  0.0000000E+00  0.9090909E-01  0.0000000E+00  0.1652893E-01
    1      -13.515540   1.000000
    2      -13.037246   1.000000
    3      -12.050403   1.000000
    4      -11.816520   1.000000
    5       -5.189828   1.000000
    6       -4.459123   1.000000
    7       -2.112563   1.000000
    8       -1.966367   1.000000
    9       -1.726928   1.000000
   10       -1.636855   1.000000
   11       -1.575693   1.000000
   12       -1.161783   1.000000
   13       -0.782042   1.000000
   14       -0.733971   1.000000
   15       -0.404206   1.000000
   16        0.000537   1.000000
   17        0.786858   1.000000
   18        1.305333   1.000000
   19        3.544644   0.000000
   20        3.647102   0.000000
   21        3.777632   0.000000
   22        3.867159   0.000000
   23        3.891174   0.000000
   24        3.927585   0.000000
 
  0.9090909E-01  0.9090909E-01  0.0000000E+00  0.1652893E-01
    1      -13.265593   1.000000
    2      -12.816047   1.000000
    3      -11.941834   1.000000
    4      -11.718418   1.000000
    5       -4.906575   1.000000
    6       -4.221580   1.000000
    7       -2.651998   1.000000
    8       -2.377641   1.000000
    9       -2.113821   1.000000
   10       -1.648175   1.000000
   11       -1.410681   1.000000
   12       -1.351904   1.000000
   13       -1.244658   1.000000
   14       -1.204205   1.000000
   15       -0.253731   1.000000
   16        0.130437   1.000000
   17        0.651210   1.000000
   18        0.931681   1.000000
   19        3.255188   0.000000
   20        3.380860   0.000000
   21        3.558186   0.000000
   22        3.656841   0.000000
   23        3.835591   0.000000
   24        3.911993   0.000000
 
  0.1818182E+00  0.9090909E-01  0.0000000E+00  0.1652893E-01
    1      -12.810364   1.000000
    2      -12.414923   1.000000
    3      -11.746090   1.000000
    4      -11.541671   1.000000
    5       -4.490034   1.000000
    6       -3.954805   1.000000
    7       -3.338924   1.000000
    8       -2.861036   1.000000
    9       -2.617041   1.000000
   10       -2.332899   1.000000
   11       -1.879002   1.000000
   12       -1.764734   1.000000
   13       -1.097620   1.000000
   14       -1.019078   1.000000
   15       -0.302916   1.000000
   16       -0.020071   1.000000
   17        0.280357   1.000000
   18        0.382106   1.000000
   19        2.920679   0.000000
   20        3.294902   0.000000
   21        3.382221   0.000000
   22        3.594661   0.000000
   23        3.815399   0.000000
   24        4.145250   0.000000
 
  0.2727273E+00  0.9090909E-01  0.0000000E+00  0.1652893E-01
    1      -12.247429   1.000000
    2      -11.924541   1.000000
    3      -11.510090   1.000000
    4      -11.329227   1.000000
    5       -4.544086   1.000000
    6       -4.195204   1.000000
    7       -3.517799   1.000000
    8       -3.321268   1.000000
    9       -3.113903   1.000000
   10       -2.865793   1.000000
   11       -2.221913   1.000000
   12       -2.064901   1.000000
   13       -0.977048   1.000000
   14       -0.837686   1.000000
   15       -0.599371   1.000000
   16       -0.415032   1.000000
   17        0.065826   1.000000
   18        0.148760   1.000000
   19        2.920096   0.000000
   20        3.297975   0.000000
   21        3.459133   0.000000
   22        3.899025   0.000000
   23        4.071744   0.000000
   24        4.622340   0.000000
 
  0.3636364E+00  0.9090909E-01  0.0000000E+00  0.1652893E-01
    1      -11.745309   1.000000
    2      -11.497247   1.000000
    3      -11.309385   1.000000
    4      -11.149317   1.000000
    5       -5.030562   1.000000
    6       -4.553396   1.000000
    7       -3.930524   1.000000
    8       -3.767172   1.000000
    9       -3.313930   1.000000
   10       -2.942356   1.000000
   11       -2.329118   1.000000
   12       -2.204852   1.000000
   13       -0.965923   1.000000
   14       -0.893658   1.000000
   15       -0.750114   1.000000
   16       -0.685870   1.000000
   17        0.259783   1.000000
   18        0.338164   1.000000
   19        3.103014   0.000000
   20        3.473414   0.000000
   21        3.745383   0.000000
   22        4.162743   0.000000
   23        4.506970   0.000000
   24        5.067399   0.000000
 
  0.4545455E+00  0.9090909E-01  0.0000000E+00  0.1652893E-01
    1      -11.533814   1.000000
    2      -11.321872   1.000000
    3      -11.230011   1.000000
    4      -11.077423   1.000000
    5       -5.248818   1.000000
    6       -4.709818   1.000000
    7       -4.142547   1.000000
    8       -3.975815   1.000000
    9       -3.360659   1.000000
   10       -3.023585   1.000000
   11       -2.341618   1.000000
   12       -2.244634   1.000000
   13       -1.064445   1.000000
   14       -0.881540   1.000000
   15       -0.833973   1.000000
   16       -0.611580   1.000000
   17        0.419752   1.000000
   18        0.517054   1.000000
   19        3.125503   0.000000
   20        3.673805   0.000000
   21        3.844393   0.000000
   22        4.421714   0.000000
   23        4.783632   0.000000
   24        4.968827   0.000000
 
 -0.4545455E+00  0.9090909E-01  0.0000000E+00  0.1652893E-01
    1      -11.745553   1.000000
    2      -11.497295   1.000000
    3      -11.309345   1.000000
    4      -11.149070   1.000000
    5       -5.030532   1.000000
    6       -4.553462   1.000000
    7       -3.930189   1.000000
    8       -3.767449   1.000000
    9       -3.313871   1.000000
   10       -2.943104   1.000000
   11       -2.327972   1.000000
   12       -2.205018   1.000000
   13       -0.976282   1.000000
   14       -0.893815   1.000000
   15       -0.747488   1.000000
   16       -0.677145   1.000000
   17        0.262090   1.000000
   18        0.335622   1.000000
   19        3.102913   0.000000
   20        3.474403   0.000000
   21        3.744052   0.000000
   22        4.164459   0.000000
   23        4.504668   0.000000
   24        5.070244   0.000000
 
 -0.3636364E+00  0.9090909E-01  0.0000000E+00  0.1652893E-01
    1      -12.247679   1.000000
    2      -11.924545   1.000000
    3      -11.510179   1.000000
    4      -11.328894   1.000000
    5       -4.544072   1.000000
    6       -4.195378   1.000000
    7       -3.516942   1.000000
    8       -3.321391   1.000000
    9       -3.114570   1.000000
   10       -2.867092   1.000000
   11       -2.220496   1.000000
   12       -2.065030   1.000000
   13       -0.978936   1.000000
   14       -0.839690   1.000000
   15       -0.602433   1.000000
   16       -0.406952   1.000000
   17        0.068288   1.000000
   18        0.147177   1.000000
   19        2.920920   0.000000
   20        3.297285   0.000000
   21        3.457302   0.000000
   22        3.900034   0.000000
   23        4.070862   0.000000
   24        4.619665   0.000000
 
 -0.2727273E+00  0.9090909E-01  0.0000000E+00  0.1652893E-01
    1      -12.810548   1.000000
    2      -12.414923   1.000000
    3      -11.746209   1.000000
    4      -11.541384   1.000000
    5       -4.490321   1.000000
    6       -3.954725   1.000000
    7       -3.338933   1.000000
    8       -2.860880   1.000000
    9       -2.616684   1.000000
   10       -2.334003   1.000000
   11       -1.879252   1.000000
   12       -1.764386   1.000000
   13       -1.097541   1.000000
   14       -1.019327   1.000000
   15       -0.306739   1.000000
   16       -0.015810   1.000000
   17        0.280761   1.000000
   18        0.385369   1.000000
   19        2.919768   0.000000
   20        3.292496   0.000000
   21        3.381777   0.000000
   22        3.592351   0.000000
   23        3.816756   0.000000
   24        4.144618   0.000000
 
 -0.1818182E+00  0.9090909E-01  0.0000000E+00  0.1652893E-01
    1      -13.265704   1.000000
    2      -12.816048   1.000000
    3      -11.941922   1.000000
    4      -11.718233   1.000000
    5       -4.906862   1.000000
    6       -4.221402   1.000000
    7       -2.652337   1.000000
    8       -2.377729   1.000000
    9       -2.113023   1.000000
   10       -1.647931   1.000000
   11       -1.410563   1.000000
   12       -1.352007   1.000000
   13       -1.247602   1.000000
   14       -1.202636   1.000000
   15       -0.255386   1.000000
   16        0.132706   1.000000
   17        0.650592   1.000000
   18        0.936242   1.000000
   19        3.251024   0.000000
   20        3.378330   0.000000
   21        3.557587   0.000000
   22        3.655848   0.000000
   23        3.835647   0.000000
   24        3.913612   0.000000
 
 -0.9090909E-01  0.9090909E-01  0.0000000E+00  0.1652893E-01
    1      -13.515576   1.000000
    2      -13.037247   1.000000
    3      -12.050433   1.000000
    4      -11.816459   1.000000
    5       -5.189931   1.000000
    6       -4.459060   1.000000
    7       -2.113013   1.000000
    8       -1.966451   1.000000
    9       -1.726431   1.000000
   10       -1.636454   1.000000
   11       -1.575610   1.000000
   12       -1.161291   1.000000
   13       -0.782586   1.000000
   14       -0.735324   1.000000
   15       -0.404423   1.000000
   16        0.001670   1.000000
   17        0.786648   1.000000
   18        1.307268   1.000000
   19        3.544039   0.000000
   20        3.644131   0.000000
   21        3.775457   0.000000
   22        3.866149   0.000000
   23        3.890188   0.000000
   24        3.929217   0.000000
 
  0.0000000E+00  0.1818182E+00  0.0000000E+00  0.1652893E-01
    1      -13.146552   1.000000
    2      -12.710880   1.000000
    3      -11.890542   1.000000
    4      -11.672050   1.000000
    5       -4.788228   1.000000
    6       -4.134132   1.000000
    7       -2.878806   1.000000
    8       -2.549374   1.000000
    9       -2.321084   1.000000
   10       -1.930208   1.000000
   11       -1.286187   1.000000
   12       -1.232929   1.000000
   13       -1.211878   1.000000
   14       -1.193623   1.000000
   15       -0.431089   1.000000
   16       -0.004834   1.000000
   17        0.552363   1.000000
   18        0.747380   1.000000
   19        3.170866   0.000000
   20        3.460922   0.000000
   21        3.475756   0.000000
   22        3.686562   0.000000
   23        3.791134   0.000000
   24        4.059865   0.000000
 
  0.9090909E-01  0.1818182E+00  0.0000000E+00  0.1652893E-01
    1      -12.810353   1.000000
    2      -12.414989   1.000000
    3      -11.746033   1.000000
    4      -11.541615   1.000000
    5       -4.490108   1.000000
    6       -3.954813   1.000000
    7       -3.338816   1.000000
    8       -2.861338   1.000000
    9       -2.616819   1.000000
   10       -2.332127   1.000000
   11       -1.879001   1.000000
   12       -1.766107   1.000000
   13       -1.097598   1.000000
   14       -1.018844   1.000000
   15       -0.304176   1.000000
   16       -0.019534   1.000000
   17        0.280412   1.000000
   18        0.383114   1.000000
   19        2.921095   0.000000
   20        3.294274   0.000000
   21        3.382327   0.000000
   22        3.593698   0.000000
   23        3.815625   0.000000
   24        4.144926   0.000000
 
  0.1818182E+00  0.1818182E+00  0.0000000E+00  0.1652893E-01
    1      -12.324485   1.000000
    2      -11.991533   1.000000
    3      -11.538525   1.000000
    4      -11.354003   1.000000
    5       -4.347827   1.000000
    6       -4.043215   1.000000
    7       -3.471695   1.000000
    8       -3.130188   1.000000
    9       -2.957375   1.000000
   10       -2.864143   1.000000
   11       -2.506750   1.000000
   12       -2.176545   1.000000
   13       -1.294833   1.000000
   14       -1.144385   1.000000
   15       -0.318308   1.000000
   16       -0.192685   1.000000
   17        0.112932   1.000000
   18        0.232298   1.000000
   19        2.771826   0.000000
   20        3.227003   0.000000
   21        3.420010   0.000000
   22        3.705497   0.000000
   23        4.003544   0.000000
   24        4.327386   0.000000
 
  0.2727273E+00  0.1818182E+00  0.0000000E+00  0.1652893E-01
    1      -11.814776   1.000000
    2      -11.555950   1.000000
    3      -11.324456   1.000000
    4      -11.160458   1.000000
    5       -4.636862   1.000000
    6       -4.258455   1.000000
    7       -3.847400   1.000000
    8       -3.705092   1.000000
    9       -3.209756   1.000000
   10       -2.820980   1.000000
   11       -2.511113   1.000000
   12       -2.214703   1.000000
   13       -1.732154   1.000000
   14       -1.501732   1.000000
   15       -0.684394   1.000000
   16       -0.537664   1.000000
   17        0.266867   1.000000
   18        0.363843   1.000000
   19        3.017567   0.000000
   20        3.457529   0.000000
   21        3.575738   0.000000
   22        4.007399   0.000000
   23        4.190795   0.000000
   24        4.650131   0.000000
 
  0.3636364E+00  0.1818182E+00  0.0000000E+00  0.1652893E-01
    1      -11.469756   1.000000
    2      -11.269363   1.000000
    3      -11.184755   1.000000
    4      -11.033176   1.000000
    5       -4.867877   1.000000
    6       -4.374250   1.000000
    7       -4.287850   1.000000
    8       -4.135712   1.000000
    9       -3.254457   1.000000
   10       -2.937678   1.000000
   11       -2.394973   1.000000
   12       -2.173976   1.000000
   13       -1.863446   1.000000
   14       -1.586123   1.000000
   15       -1.056072   1.000000
   16       -0.836885   1.000000
   17        0.543401   1.000000
   18        0.667521   1.000000
   19        3.010980   0.000000
   20        3.559386   0.000000
   21        3.860529   0.000000
   22        4.183741   0.000000
   23        4.580818   0.000000
   24        4.884828   0.000000
 
  0.4545455E+00  0.1818182E+00  0.0000000E+00  0.1652893E-01
    1      -11.470120   1.000000
    2      -11.269599   1.000000
    3      -11.184449   1.000000
    4      -11.032886   1.000000
    5       -4.867793   1.000000
    6       -4.374450   1.000000
    7       -4.287791   1.000000
    8       -4.135515   1.000000
    9       -3.253918   1.000000
   10       -2.938841   1.000000
   11       -2.394308   1.000000
   12       -2.175034   1.000000
   13       -1.865433   1.000000
   14       -1.584868   1.000000
   15       -1.054699   1.000000
   16       -0.835621   1.000000
   17        0.542858   1.000000
   18        0.667459   1.000000
   19        3.011106   0.000000
   20        3.560234   0.000000
   21        3.861090   0.000000
   22        4.183401   0.000000
   23        4.580112   0.000000
   24        4.883987   0.000000
 
 -0.4545455E+00  0.1818182E+00  0.0000000E+00  0.1652893E-01
    1      -11.815395   1.000000
    2      -11.556015   1.000000
    3      -11.324452   1.000000
    4      -11.159796   1.000000
    5       -4.636660   1.000000
    6       -4.258364   1.000000
    7       -3.847569   1.000000
    8       -3.704016   1.000000
    9       -3.211623   1.000000
   10       -2.823701   1.000000
   11       -2.509347   1.000000
   12       -2.214468   1.000000
   13       -1.732880   1.000000
   14       -1.501898   1.000000
   15       -0.683134   1.000000
   16       -0.533711   1.000000
   17        0.265713   1.000000
   18        0.363674   1.000000
   19        3.018864   0.000000
   20        3.458326   0.000000
   21        3.575059   0.000000
   22        4.005215   0.000000
   23        4.190644   0.000000
   24        4.648262   0.000000
 
 -0.3636364E+00  0.1818182E+00  0.0000000E+00  0.1652893E-01
    1      -12.324992   1.000000
    2      -11.991533   1.000000
    3      -11.538735   1.000000
    4      -11.353318   1.000000
    5       -4.347404   1.000000
    6       -4.043127   1.000000
    7       -3.473455   1.000000
    8       -3.128476   1.000000
    9       -2.957333   1.000000
   10       -2.867414   1.000000
   11       -2.506983   1.000000
   12       -2.174578   1.000000
   13       -1.294922   1.000000
   14       -1.144974   1.000000
   15       -0.319057   1.000000
   16       -0.186925   1.000000
   17        0.113477   1.000000
   18        0.231793   1.000000
   19        2.771496   0.000000
   20        3.224555   0.000000
   21        3.420129   0.000000
   22        3.703820   0.000000
   23        4.003936   0.000000
   24        4.327240   0.000000
 
 -0.2727273E+00  0.1818182E+00  0.0000000E+00  0.1652893E-01
    1      -12.810689   1.000000
    2      -12.414988   1.000000
    3      -11.746250   1.000000
    4      -11.541101   1.000000
    5       -4.490312   1.000000
    6       -3.955091   1.000000
    7       -3.339359   1.000000
    8       -2.860453   1.000000
    9       -2.615840   1.000000
   10       -2.333795   1.000000
   11       -1.882073   1.000000
   12       -1.763756   1.000000
   13       -1.097402   1.000000
   14       -1.018925   1.000000
   15       -0.303458   1.000000
   16       -0.016934   1.000000
   17        0.282409   1.000000
   18        0.383098   1.000000
   19        2.918293   0.000000
   20        3.294238   0.000000
   21        3.379849   0.000000
   22        3.594294   0.000000
   23        3.815235   0.000000
   24        4.145021   0.000000
 
 -0.1818182E+00  0.1818182E+00  0.0000000E+00  0.1652893E-01
    1      -13.146718   1.000000
    2      -12.710881   1.000000
    3      -11.890670   1.000000
    4      -11.671780   1.000000
    5       -4.788550   1.000000
    6       -4.134039   1.000000
    7       -2.879157   1.000000
    8       -2.549350   1.000000
    9       -2.320035   1.000000
   10       -1.931006   1.000000
   11       -1.286372   1.000000
   12       -1.233173   1.000000
   13       -1.212259   1.000000
   14       -1.193882   1.000000
   15       -0.429564   1.000000
   16       -0.004300   1.000000
   17        0.552497   1.000000
   18        0.749191   1.000000
   19        3.168562   0.000000
   20        3.460507   0.000000
   21        3.474932   0.000000
   22        3.686792   0.000000
   23        3.790714   0.000000
   24        4.059146   0.000000
 
 -0.9090909E-01  0.1818182E+00  0.0000000E+00  0.1652893E-01
    1      -13.265697   1.000000
    2      -12.816103   1.000000
    3      -11.941867   1.000000
    4      -11.718181   1.000000
    5       -4.906832   1.000000
    6       -4.221513   1.000000
    7       -2.652395   1.000000
    8       -2.378394   1.000000
    9       -2.112415   1.000000
   10       -1.646809   1.000000
   11       -1.410460   1.000000
   12       -1.351439   1.000000
   13       -1.248138   1.000000
   14       -1.204424   1.000000
   15       -0.254885   1.000000
   16        0.132342   1.000000
   17        0.651157   1.000000
   18        0.935767   1.000000
   19        3.251800   0.000000
   20        3.377327   0.000000
   21        3.557420   0.000000
   22        3.655759   0.000000
   23        3.835291   0.000000
   24        3.913306   0.000000
 
  0.0000000E+00  0.2727273E+00  0.0000000E+00  0.1652893E-01
    1      -12.609049   1.000000
    2      -12.238559   1.000000
    3      -11.662248   1.000000
    4      -11.466339   1.000000
    5       -4.475084   1.000000
    6       -4.050070   1.000000
    7       -3.491728   1.000000
    8       -3.060730   1.000000
    9       -2.875347   1.000000
   10       -2.680224   1.000000
   11       -1.711889   1.000000
   12       -1.664418   1.000000
   13       -0.815447   1.000000
   14       -0.748031   1.000000
   15       -0.709723   1.000000
   16       -0.349952   1.000000
   17        0.070367   1.000000
   18        0.171288   1.000000
   19        3.077704   0.000000
   20        3.201729   0.000000
   21        3.582464   0.000000
   22        3.630255   0.000000
   23        4.005791   0.000000
   24        4.553044   0.000000
 
  0.9090909E-01  0.2727273E+00  0.0000000E+00  0.1652893E-01
    1      -12.247374   1.000000
    2      -11.924718   1.000000
    3      -11.509970   1.000000
    4      -11.329083   1.000000
    5       -4.544284   1.000000
    6       -4.195331   1.000000
    7       -3.516731   1.000000
    8       -3.321589   1.000000
    9       -3.113129   1.000000
   10       -2.866916   1.000000
   11       -2.222005   1.000000
   12       -2.066378   1.000000
   13       -0.977353   1.000000
   14       -0.837583   1.000000
   15       -0.602527   1.000000
   16       -0.411545   1.000000
   17        0.065882   1.000000
   18        0.150054   1.000000
   19        2.920411   0.000000
   20        3.297661   0.000000
   21        3.458903   0.000000
   22        3.898452   0.000000
   23        4.070986   0.000000
   24        4.621473   0.000000
 
  0.1818182E+00  0.2727273E+00  0.0000000E+00  0.1652893E-01
    1      -11.814717   1.000000
    2      -11.556054   1.000000
    3      -11.324414   1.000000
    4      -11.160370   1.000000
    5       -4.636882   1.000000
    6       -4.258593   1.000000
    7       -3.847376   1.000000
    8       -3.705381   1.000000
    9       -3.207774   1.000000
   10       -2.822661   1.000000
   11       -2.511356   1.000000
   12       -2.215631   1.000000
   13       -1.732158   1.000000
   14       -1.501092   1.000000
   15       -0.687492   1.000000
   16       -0.534259   1.000000
   17        0.266907   1.000000
   18        0.364098   1.000000
   19        3.017697   0.000000
   20        3.457598   0.000000
   21        3.575698   0.000000
   22        4.007276   0.000000
   23        4.190525   0.000000
   24        4.649859   0.000000
 
  0.2727273E+00  0.2727273E+00  0.0000000E+00  0.1652893E-01
    1      -11.449450   1.000000
    2      -11.252764   1.000000
    3      -11.165576   1.000000
    4      -11.014046   1.000000
    5       -4.565280   1.000000
    6       -4.379424   1.000000
    7       -4.203611   1.000000
    8       -4.109684   1.000000
    9       -3.050568   1.000000
   10       -2.787190   1.000000
   11       -2.585066   1.000000
   12       -2.388994   1.000000
   13       -2.264918   1.000000
   14       -2.059292   1.000000
   15       -1.041862   1.000000
   16       -0.827890   1.000000
   17        0.573027   1.000000
   18        0.710914   1.000000
   19        2.916595   0.000000
   20        3.381787   0.000000
   21        3.883951   0.000000
   22        3.985358   0.000000
   23        4.587982   0.000000
   24        4.705168   0.000000
 
  0.3636364E+00  0.2727273E+00  0.0000000E+00  0.1652893E-01
    1      -11.303727   1.000000
    2      -11.132570   1.000000
    3      -11.104147   1.000000
    4      -10.954327   1.000000
    5       -4.590505   1.000000
    6       -4.429799   1.000000
    7       -4.396291   1.000000
    8       -3.900791   1.000000
    9       -3.239900   1.000000
   10       -3.030128   1.000000
   11       -2.718306   1.000000
   12       -2.536638   1.000000
   13       -2.184328   1.000000
   14       -1.991154   1.000000
   15       -1.226444   1.000000
   16       -1.060950   1.000000
   17        0.811771   1.000000
   18        1.003232   1.000000
   19        2.669027   0.000000
   20        3.051403   0.000000
   21        3.884254   0.000000
   22        4.296789   0.000000
   23        4.617087   0.000000
   24        4.998185   0.000000
 
  0.4545455E+00  0.2727273E+00  0.0000000E+00  0.1652893E-01
    1      -11.450491   1.000000
    2      -11.253360   1.000000
    3      -11.164775   1.000000
    4      -11.013231   1.000000
    5       -4.564925   1.000000
    6       -4.380456   1.000000
    7       -4.201868   1.000000
    8       -4.108974   1.000000
    9       -3.052565   1.000000
   10       -2.795447   1.000000
   11       -2.582126   1.000000
   12       -2.387525   1.000000
   13       -2.263840   1.000000
   14       -2.059001   1.000000
   15       -1.029683   1.000000
   16       -0.835325   1.000000
   17        0.571549   1.000000
   18        0.711187   1.000000
   19        2.916856   0.000000
   20        3.383020   0.000000
   21        3.885127   0.000000
   22        3.984824   0.000000
   23        4.589032   0.000000
   24        4.699014   0.000000
 
 -0.4545455E+00  0.2727273E+00  0.0000000E+00  0.1652893E-01
    1      -11.815804   1.000000
    2      -11.556158   1.000000
    3      -11.324411   1.000000
    4      -11.159232   1.000000
    5       -4.636374   1.000000
    6       -4.257349   1.000000
    7       -3.847721   1.000000
    8       -3.702883   1.000000
    9       -3.219784   1.000000
   10       -2.819697   1.000000
   11       -2.510280   1.000000
   12       -2.213051   1.000000
   13       -1.732563   1.000000
   14       -1.501612   1.000000
   15       -0.671379   1.000000
   16       -0.543966   1.000000
   17        0.265865   1.000000
   18        0.363145   1.000000
   19        3.018936   0.000000
   20        3.458119   0.000000