============================================================
MKLROOT=/public/apps/intel/oneapi/mkl/2021.2.0
============================================================
Job ID: sub_vasp
Job name: sub_vasp
Number of nodes: 1
Number of processors: 24
Task is running on the following nodes:
h6
OMP_NUM_THREADS = 1
============================================================

 running on   24 total cores
 distrk:  each k-point on   24 cores,    1 groups
 distr:  one band on    6 cores,    4 groups
 using from now: INCAR     
 vasp.5.4.4.18Apr17-6-g9f103f2a35 (build Jun 26 2021 01:31:14) complex          
  
 POSCAR found type information on POSCAR  S  Mo W 
 POSCAR found :  3 types and       6 ions
 scaLAPACK will be used
 LDA part: xc-table for Pade appr. of Perdew
 POSCAR, INCAR and KPOINTS ok, starting setup
 FFT: planning ...
 WAVECAR not read
 WARNING: random wavefunctions but no delay for mixing, default for NELMDL
 entering main loop
       N       E                     dE             d eps       ncg     rms          rms(c)
DAV:   1     0.204073129302E+03    0.20407E+03   -0.13067E+04  2928   0.101E+03
DAV:   2    -0.288895717522E+02   -0.23296E+03   -0.22577E+03  4184   0.236E+02
DAV:   3    -0.479770970592E+02   -0.19088E+02   -0.18863E+02  3840   0.726E+01
DAV:   4    -0.485340846434E+02   -0.55699E+00   -0.55567E+00  4248   0.134E+01
DAV:   5    -0.485493957189E+02   -0.15311E-01   -0.15305E-01  3920   0.213E+00    0.931E+00
RMM:   6    -0.461172197965E+02    0.24322E+01   -0.14935E+01  3060   0.150E+01    0.334E+00
RMM:   7    -0.455522405942E+02    0.56498E+00   -0.14505E+00  2966   0.477E+00    0.197E+00
RMM:   8    -0.454554593236E+02    0.96781E-01   -0.42472E-01  2947   0.264E+00    0.804E-01
RMM:   9    -0.454437657767E+02    0.11694E-01   -0.60853E-02  3097   0.115E+00    0.317E-01
RMM:  10    -0.454412453690E+02    0.25204E-02   -0.20161E-02  3043   0.549E-01    0.110E-01
RMM:  11    -0.454403485204E+02    0.89685E-03   -0.26250E-03  3095   0.210E-01    0.368E-02
RMM:  12    -0.454402198749E+02    0.12865E-03   -0.11337E-03  3080   0.107E-01    0.340E-02
RMM:  13    -0.454400923174E+02    0.12756E-03   -0.45332E-04  3037   0.812E-02    0.169E-02
RMM:  14    -0.454401634406E+02   -0.71123E-04   -0.10264E-04  3009   0.376E-02    0.952E-03
RMM:  15    -0.454403152894E+02   -0.15185E-03   -0.39425E-05  2966   0.220E-02    0.560E-03
RMM:  16    -0.454404506680E+02   -0.13538E-03   -0.20065E-05  3027   0.163E-02    0.535E-03
RMM:  17    -0.454404876198E+02   -0.36952E-04   -0.14162E-05  2982   0.155E-02    0.383E-03
RMM:  18    -0.454404990160E+02   -0.11396E-04   -0.19626E-06  1937   0.578E-03    0.116E-03
RMM:  19    -0.454405001661E+02   -0.11501E-05   -0.46371E-07  1755   0.302E-03    0.338E-04
RMM:  20    -0.454405005931E+02   -0.42706E-06   -0.19880E-07  1498   0.202E-03
   1 F= -.47134382E+02 E0= -.47134382E+02  d E =-.471344E+02
 curvature:   0.00 expect dE= 0.000E+00 dE for cont linesearch  0.000E+00
 trial: gam= 0.00000 g(F)=  0.590E-01 g(S)=  0.000E+00 ort = 0.000E+00 (trialstep = 0.100E+01)
 search vector abs. value=  0.590E-01
 bond charge predicted
       N       E                     dE             d eps       ncg     rms          rms(c)
DAV:   1    -0.454502137979E+02   -0.97136E-02   -0.40155E+00  3136   0.983E+00    0.400E-01
RMM:   2    -0.454637813809E+02   -0.13568E-01   -0.17285E-01  2929   0.250E+00    0.152E-01
RMM:   3    -0.454638880828E+02   -0.10670E-03   -0.82032E-03  3239   0.496E-01    0.115E-01
RMM:   4    -0.454635352990E+02    0.35278E-03   -0.12618E-03  2942   0.166E-01    0.615E-02
RMM:   5    -0.454634989456E+02    0.36353E-04   -0.76267E-04  2936   0.116E-01    0.235E-02
RMM:   6    -0.454634647767E+02    0.34169E-04   -0.58646E-05  3031   0.338E-02    0.137E-02
RMM:   7    -0.454634556074E+02    0.91693E-05   -0.84603E-05  2934   0.325E-02    0.333E-03
RMM:   8    -0.454634567210E+02   -0.11136E-05   -0.54281E-06  2446   0.110E-02    0.262E-03
RMM:   9    -0.454634577878E+02   -0.10668E-05   -0.28562E-06  2012   0.736E-03    0.902E-04
RMM:  10    -0.454634585929E+02   -0.80517E-06   -0.38217E-07  1830   0.352E-03
   2 F= -.47159383E+02 E0= -.47159383E+02  d E =-.250001E-01
 trial-energy change:   -0.025000  1 .order   -0.024347   -0.058985    0.010292
 step:   0.8583(harm=  0.8514)  dis= 0.01514  next Energy=   -47.160110 (dE=-0.257E-01)
 bond charge predicted
       N       E                     dE             d eps       ncg     rms          rms(c)
DAV:   1    -0.454642258624E+02   -0.76807E-03   -0.80752E-02  3752   0.140E+00    0.566E-02
RMM:   2    -0.454644775975E+02   -0.25174E-03   -0.33441E-03  2931   0.345E-01    0.214E-02
RMM:   3    -0.454644761385E+02    0.14591E-05   -0.15289E-04  3178   0.686E-02    0.159E-02
RMM:   4    -0.454644680523E+02    0.80862E-05   -0.22967E-05  2949   0.231E-02    0.855E-03
RMM:   5    -0.454644651594E+02    0.28929E-05   -0.13221E-05  2928   0.156E-02    0.299E-03
RMM:   6    -0.454644646290E+02    0.53045E-06   -0.73276E-07  1772   0.447E-03
   3 F= -.47160102E+02 E0= -.47160102E+02  d E =-.257195E-01
 curvature:  -0.42 expect dE=-0.346E-02 dE for cont linesearch -0.210E-12
 trial: gam= 0.13806 g(F)=  0.814E-02 g(S)=  0.000E+00 ort =-0.171E-06 (trialstep = 0.972E+00)
 search vector abs. value=  0.927E-02
 bond charge predicted
       N       E                     dE             d eps       ncg     rms          rms(c)
DAV:   1    -0.454629659196E+02    0.14992E-02   -0.70395E-01  2960   0.414E+00    0.156E-01
RMM:   2    -0.454649319243E+02   -0.19660E-02   -0.25147E-02  2928   0.948E-01    0.690E-02
RMM:   3    -0.454649040426E+02    0.27882E-04   -0.12123E-03  3187   0.189E-01    0.478E-02
RMM:   4    -0.454648416488E+02    0.62394E-04   -0.26787E-04  2931   0.740E-02    0.187E-02
RMM:   5    -0.454648358603E+02    0.57885E-05   -0.47840E-05  3031   0.310E-02    0.718E-03
RMM:   6    -0.454648341957E+02    0.16646E-05   -0.77899E-06  2737   0.110E-02    0.381E-03
RMM:   7    -0.454648337581E+02    0.43755E-06   -0.36717E-06  2242   0.813E-03
   4 F= -.47161388E+02 E0= -.47161388E+02  d E =-.128613E-02
 trial-energy change:   -0.001286  1 .order   -0.001192   -0.007913    0.005528
 step:   0.5818(harm=  0.5720)  dis= 0.00729  next Energy=   -47.162491 (dE=-0.239E-02)
 bond charge predicted
       N       E                     dE             d eps       ncg     rms          rms(c)
DAV:   1    -0.454660146279E+02   -0.11804E-02   -0.11327E-01  3056   0.167E+00    0.630E-02
RMM:   2    -0.454663204214E+02   -0.30579E-03   -0.40550E-03  2928   0.380E-01    0.276E-02
RMM:   3    -0.454663123389E+02    0.80825E-05   -0.19414E-04  3186   0.761E-02    0.191E-02
RMM:   4    -0.454662993502E+02    0.12989E-04   -0.40956E-05  2931   0.294E-02    0.764E-03
RMM:   5    -0.454662970177E+02    0.23324E-05   -0.75409E-06  2704   0.126E-02    0.276E-03
RMM:   6    -0.454662965415E+02    0.47623E-06   -0.91808E-07  1826   0.476E-03
   5 F= -.47162482E+02 E0= -.47162482E+02  d E =-.237979E-02
 curvature:  -0.33 expect dE=-0.872E-04 dE for cont linesearch -0.217E-07
 trial: gam= 0.03609 g(F)=  0.268E-03 g(S)=  0.000E+00 ort =-0.249E-04 (trialstep = 0.894E+00)
 search vector abs. value=  0.278E-03
 bond charge predicted
       N       E                     dE             d eps       ncg     rms          rms(c)
DAV:   1    -0.454664668628E+02   -0.16985E-03   -0.20923E-02  3200   0.719E-01    0.226E-02
RMM:   2    -0.454665084925E+02   -0.41630E-04   -0.51547E-04  2928   0.133E-01    0.126E-02
RMM:   3    -0.454665072742E+02    0.12183E-05   -0.27687E-05  3228   0.251E-02    0.856E-03
RMM:   4    -0.454665057772E+02    0.14970E-05   -0.83431E-06  2754   0.126E-02    0.253E-03
RMM:   5    -0.454665057050E+02    0.72233E-07   -0.74151E-07  1806   0.450E-03
   6 F= -.47162567E+02 E0= -.47162567E+02  d E =-.853403E-04
 trial-energy change:   -0.000085  1 .order   -0.000084   -0.000239    0.000071
 step:   0.6893(harm=  0.6893)  dis= 0.00094  next Energy=   -47.162574 (dE=-0.921E-04)
 bond charge predicted
       N       E                     dE             d eps       ncg     rms          rms(c)
DAV:   1    -0.454664841978E+02    0.21579E-04   -0.10910E-03  3552   0.164E-01    0.492E-03
RMM:   2    -0.454664858102E+02   -0.16124E-05   -0.23873E-05  2909   0.290E-02    0.290E-03
RMM:   3    -0.454664855235E+02    0.28667E-06   -0.80573E-07  1708   0.542E-03    0.184E-03
RMM:   4    -0.454664853056E+02    0.21794E-06   -0.49628E-07  1651   0.373E-03
   7 F= -.47162575E+02 E0= -.47162575E+02  d E =-.930812E-04
 curvature:  -0.36 expect dE=-0.928E-05 dE for cont linesearch -0.281E-08
 trial: gam= 0.09458 g(F)=  0.259E-04 g(S)=  0.000E+00 ort =-0.148E-05 (trialstep = 0.853E+00)
 search vector abs. value=  0.281E-04
 bond charge predicted
       N       E                     dE             d eps       ncg     rms          rms(c)
DAV:   1    -0.454665885887E+02   -0.10307E-03   -0.11928E-03  3320   0.167E-01    0.711E-03
RMM:   2    -0.454665931544E+02   -0.45657E-05   -0.55258E-05  2925   0.445E-02    0.260E-03
RMM:   3    -0.454665931173E+02    0.37089E-07   -0.19006E-06  1811   0.890E-03    0.179E-03
RMM:   4    -0.454665929540E+02    0.16326E-06   -0.61172E-07  1689   0.480E-03
   8 F= -.47162591E+02 E0= -.47162591E+02  d E =-.162253E-04
 trial-energy change:   -0.000016  1 .order   -0.000017   -0.000022   -0.000011
 step:   1.7797(harm=  1.7797)  dis= 0.00123  next Energy=   -47.162598 (dE=-0.229E-04)
 bond charge predicted
       N       E                     dE             d eps       ncg     rms          rms(c)
DAV:   1    -0.454666919519E+02   -0.98835E-04   -0.13997E-03  3264   0.181E-01    0.780E-03
RMM:   2    -0.454666974627E+02   -0.55108E-05   -0.67087E-05  2926   0.489E-02    0.284E-03
RMM:   3    -0.454666974655E+02   -0.28213E-08   -0.25771E-06  1949   0.100E-02    0.201E-03
RMM:   4    -0.454666972691E+02    0.19643E-06   -0.70017E-07  1724   0.512E-03
   9 F= -.47162596E+02 E0= -.47162596E+02  d E =-.211075E-04
 curvature:  -0.97 expect dE=-0.620E-04 dE for cont linesearch -0.271E-07
 trial: gam= 2.50042 g(F)=  0.638E-04 g(S)=  0.000E+00 ort =-0.885E-06 (trialstep = 0.124E+00)
 search vector abs. value=  0.235E-03
 bond charge predicted
       N       E                     dE             d eps       ncg     rms          rms(c)
DAV:   1    -0.454667547082E+02   -0.57243E-04   -0.27965E-04  3232   0.826E-02    0.307E-03
RMM:   2    -0.454667553445E+02   -0.63632E-06   -0.86598E-06  2780   0.172E-02    0.139E-03
RMM:   3    -0.454667553048E+02    0.39633E-07   -0.38852E-07  1641   0.403E-03    0.845E-04
RMM:   4    -0.454667552605E+02    0.44391E-07   -0.12793E-07  1591   0.232E-03
  10 F= -.47162603E+02 E0= -.47162603E+02  d E =-.723570E-05
 ZBRENT: can't locate minimum, use default step
 trial-energy change:   -0.000007  1 .order   -0.000007   -0.000008   -0.000007
 step:   0.4962(harm=  1.9094)  dis= 0.00080  next Energy=   -47.162655 (dE=-0.588E-04)
 bond charge predicted
       N       E                     dE             d eps       ncg     rms          rms(c)
DAV:   1    -0.454669226445E+02   -0.16734E-03   -0.25413E-03  3088   0.248E-01    0.890E-03
RMM:   2    -0.454669284228E+02   -0.57783E-05   -0.74479E-05  2926   0.511E-02    0.406E-03
RMM:   3    -0.454669281271E+02    0.29566E-06   -0.30920E-06  1980   0.109E-02    0.250E-03
RMM:   4    -0.454669278481E+02    0.27907E-06   -0.99761E-07  1558   0.597E-03
  11 F= -.47162623E+02 E0= -.47162623E+02  d E =-.275164E-04
 curvature:  -1.36 expect dE=-0.789E-04 dE for cont linesearch -0.170E-04
 ZBRENT: increasing intervall
 opt :   1.2406  next Energy=   -47.162661 (dE=-0.653E-04)
 bond charge predicted
       N       E                     dE             d eps       ncg     rms          rms(c)
DAV:   1    -0.454672445932E+02   -0.31647E-03   -0.10151E-02  2960   0.497E-01    0.179E-02
RMM:   2    -0.454672682873E+02   -0.23694E-04   -0.30373E-04  2929   0.103E-01    0.821E-03
RMM:   3    -0.454672675733E+02    0.71393E-06   -0.15873E-05  3139   0.220E-02    0.531E-03
RMM:   4    -0.454672665537E+02    0.10197E-05   -0.53351E-06  2431   0.984E-03    0.170E-03
RMM:   5    -0.454672664201E+02    0.13359E-06   -0.28192E-07  1624   0.325E-03
  12 F= -.47162657E+02 E0= -.47162657E+02  d E =-.615088E-04
 curvature:  -3.02 expect dE=-0.180E-03 dE for cont linesearch -0.228E-04
 ZBRENT: increasing intervall
 opt :   2.7293  next Energy=   -47.162702 (dE=-0.106E-03)
 bond charge predicted
       N       E                     dE             d eps       ncg     rms          rms(c)
DAV:   1    -0.454678325142E+02   -0.56596E-03   -0.40680E-02  2928   0.994E-01    0.358E-02
RMM:   2    -0.454679276073E+02   -0.95093E-04   -0.12128E-03  2929   0.206E-01    0.163E-02
RMM:   3    -0.454679248937E+02    0.27137E-05   -0.62265E-05  3176   0.437E-02    0.105E-02
RMM:   4    -0.454679212732E+02    0.36205E-05   -0.22283E-05  2945   0.196E-02    0.343E-03
RMM:   5    -0.454679206596E+02    0.61356E-06   -0.79083E-07  1823   0.489E-03
  13 F= -.47162702E+02 E0= -.47162702E+02  d E =-.106370E-03
 curvature:  -5.92 expect dE=-0.614E-03 dE for cont linesearch -0.104E-04
 trial: gam= 1.01225 g(F)=  0.104E-03 g(S)=  0.000E+00 ort = 0.203E-04 (trialstep = 0.393E+00)
 search vector abs. value=  0.385E-03
 bond charge predicted
       N       E                     dE             d eps       ncg     rms          rms(c)
DAV:   1    -0.454681111315E+02   -0.18986E-03   -0.48724E-03  2960   0.344E-01    0.123E-02
RMM:   2    -0.454681226869E+02   -0.11555E-04   -0.14433E-04  2930   0.709E-02    0.589E-03
RMM:   3    -0.454681222556E+02    0.43125E-06   -0.65978E-06  2605   0.148E-02    0.370E-03
RMM:   4    -0.454681219023E+02    0.35328E-06   -0.17580E-06  1817   0.696E-03
  14 F= -.47162746E+02 E0= -.47162746E+02  d E =-.438172E-04
 ZBRENT: can't locate minimum, use default step
 trial-energy change:   -0.000044  1 .order   -0.000045   -0.000049   -0.000041
 step:   1.5720(harm=  2.3139)  dis= 0.00322  next Energy=   -47.162846 (dE=-0.144E-03)
 bond charge predicted
       N       E                     dE             d eps       ncg     rms          rms(c)
DAV:   1    -0.454685757602E+02   -0.45350E-03   -0.43502E-02  2928   0.103E+00    0.363E-02
RMM:   2    -0.454686725555E+02   -0.96795E-04   -0.12392E-03  2928   0.209E-01    0.173E-02
RMM:   3    -0.454686691162E+02    0.34393E-05   -0.64077E-05  3182   0.439E-02    0.111E-02
RMM:   4    -0.454686655997E+02    0.35165E-05   -0.21390E-05  2940   0.194E-02    0.363E-03
RMM:   5    -0.454686651053E+02    0.49447E-06   -0.96877E-07  1828   0.533E-03
  15 F= -.47162817E+02 E0= -.47162817E+02  d E =-.114604E-03
 curvature:  -3.05 expect dE=-0.246E-03 dE for cont linesearch -0.389E-05
 ZBRENT: extrapolating
 opt :   1.8947  next Energy=   -47.162820 (dE=-0.118E-03)
 bond charge predicted
       N       E                     dE             d eps       ncg     rms          rms(c)
DAV:   1    -0.454687904696E+02   -0.12487E-03   -0.32914E-03  3008   0.283E-01    0.102E-02
RMM:   2    -0.454687983776E+02   -0.79080E-05   -0.98609E-05  2929   0.586E-02    0.486E-03
RMM:   3    -0.454687980897E+02    0.28790E-06   -0.41181E-06  2205   0.122E-02    0.301E-03
RMM:   4    -0.454687979155E+02    0.17420E-06   -0.12228E-06  1789   0.634E-03
  16 F= -.47162820E+02 E0= -.47162820E+02  d E =-.118079E-03
 curvature:  -2.81 expect dE=-0.357E-03 dE for cont linesearch -0.265E-07
 trial: gam= 1.58635 g(F)=  0.127E-03 g(S)=  0.000E+00 ort = 0.191E-05 (trialstep = 0.242E+00)
 search vector abs. value=  0.110E-02
 bond charge predicted
       N       E                     dE             d eps       ncg     rms          rms(c)
DAV:   1    -0.454689640537E+02   -0.16596E-03   -0.42080E-03  2976   0.318E-01    0.127E-02
RMM:   2    -0.454689778285E+02   -0.13775E-04   -0.16720E-04  2928   0.772E-02    0.512E-03
RMM:   3    -0.454689778810E+02   -0.52576E-07   -0.76041E-06  2692   0.160E-02    0.353E-03
RMM:   4    -0.454689775515E+02    0.32949E-06   -0.19996E-06  1755   0.713E-03
  17 F= -.47162847E+02 E0= -.47162847E+02  d E =-.264762E-04
 ZBRENT: can't locate minimum, use default step
 trial-energy change:   -0.000026  1 .order   -0.000028   -0.000032   -0.000025
 step:   0.9690(harm=  1.1991)  dis= 0.00368  next Energy=   -47.162898 (dE=-0.780E-04)
 bond charge predicted
       N       E                     dE             d eps       ncg     rms          rms(c)
DAV:   1    -0.454693501953E+02   -0.37231E-03   -0.37879E-02  2928   0.954E-01    0.380E-02
RMM:   2    -0.454694724291E+02   -0.12223E-03   -0.14957E-03  2928   0.231E-01    0.152E-02
RMM:   3    -0.454694731049E+02   -0.67574E-06   -0.73089E-05  3224   0.475E-02    0.108E-02
RMM:   4    -0.454694702968E+02    0.28081E-05   -0.29755E-05  2946   0.214E-02    0.390E-03
RMM:   5    -0.454694693758E+02    0.92093E-06   -0.86735E-07  1826   0.541E-03
  18 F= -.47162878E+02 E0= -.47162878E+02  d E =-.571827E-04
 curvature:  -4.79 expect dE=-0.485E-03 dE for cont linesearch -0.160E-06
 trial: gam= 0.63153 g(F)=  0.101E-03 g(S)=  0.000E+00 ort =-0.607E-05 (trialstep = 0.388E+00)
 search vector abs. value=  0.534E-03
 bond charge predicted
       N       E                     dE             d eps       ncg     rms          rms(c)
DAV:   1    -0.454697113294E+02   -0.24103E-03   -0.59643E-03  2976   0.380E-01    0.144E-02
RMM:   2    -0.454697274687E+02   -0.16139E-04   -0.20346E-04  2930   0.837E-02    0.632E-03
RMM:   3    -0.454697271901E+02    0.27860E-06   -0.10045E-05  2927   0.177E-02    0.420E-03
RMM:   4    -0.454697265328E+02    0.65728E-06   -0.29616E-06  2029   0.782E-03
  19 F= -.47162910E+02 E0= -.47162910E+02  d E =-.324752E-04
 ZBRENT: can't locate minimum, use default step
 trial-energy change:   -0.000032  1 .order   -0.000035   -0.000038   -0.000032
 step:   1.5505(harm=  2.4447)  dis= 0.00379  next Energy=   -47.162997 (dE=-0.119E-03)
 bond charge predicted
       N       E                     dE             d eps       ncg     rms          rms(c)
DAV:   1    -0.454703192126E+02   -0.59202E-03   -0.53171E-02  2928   0.114E+00    0.422E-02
RMM:   2    -0.454704564413E+02   -0.13723E-03   -0.17354E-03  2928   0.247E-01    0.184E-02
RMM:   3    -0.454704547273E+02    0.17140E-05   -0.89314E-05  3207   0.520E-02    0.124E-02
RMM:   4    -0.454704501404E+02    0.45870E-05   -0.34681E-05  2946   0.237E-02    0.425E-03
RMM:   5    -0.454704491038E+02    0.10366E-05   -0.10981E-06  1836   0.583E-03    0.250E-03
RMM:   6    -0.454704489254E+02    0.17844E-06   -0.20934E-06  1954   0.513E-03
  20 F= -.47162958E+02 E0= -.47162958E+02  d E =-.803785E-04
 curvature:  -5.43 expect dE=-0.509E-03 dE for cont linesearch -0.977E-07
 trial: gam= 0.73431 g(F)=  0.938E-04 g(S)=  0.000E+00 ort = 0.310E-05 (trialstep = 0.620E+00)
 search vector abs. value=  0.386E-03
 bond charge predicted
       N       E                     dE             d eps       ncg     rms          rms(c)
DAV:   1    -0.454707975638E+02   -0.34846E-03   -0.14014E-02  2928   0.582E-01    0.187E-02
RMM:   2    -0.454708208814E+02   -0.23318E-04   -0.31011E-04  2928   0.104E-01    0.993E-03
RMM:   3    -0.454708189456E+02    0.19358E-05   -0.17244E-05  3137   0.222E-02    0.591E-03
RMM:   4    -0.454708176654E+02    0.12802E-05   -0.48030E-06  2405   0.994E-03    0.182E-03
RMM:   5    -0.454708176130E+02    0.52432E-07   -0.39065E-07  1793   0.358E-03
  21 F= -.47162994E+02 E0= -.47162994E+02  d E =-.358023E-04
 trial-energy change:   -0.000036  1 .order   -0.000035   -0.000060   -0.000010
 step:   0.7399(harm=  0.7399)  dis= 0.00153  next Energy=   -47.162994 (dE=-0.356E-04)
 reached required accuracy - stopping structural energy minimisation
