 vasp.5.4.4.18Apr17-6-g9f103f2a35 (build Jun 26 2021 01:31:14) complex          
  
 executed on             LinuxIFC date 2021.07.11  12:43:10
 running on   24 total cores
 distrk:  each k-point on   24 cores,    1 groups
 distr:  one band on NCORES_PER_BAND=   6 cores,    4 groups


--------------------------------------------------------------------------------------------------------


 INCAR:
 POTCAR:    PAW_PBE S 17Jan2003                   
 POTCAR:   PAW_PBE Mo 08Apr2002                   
 POTCAR:   PAW_PBE W 08Apr2002                    
 POTCAR:    PAW_PBE S 17Jan2003                   
  local pseudopotential read in
  partial core-charges read in
  atomic valenz-charges read in
  non local Contribution for L=           0  read in
    real space projection operators read in
  non local Contribution for L=           0  read in
    real space projection operators read in
  non local Contribution for L=           1  read in
    real space projection operators read in
  non local Contribution for L=           1  read in
    real space projection operators read in
    PAW grid and wavefunctions read in
 
   number of l-projection  operators is LMAX  =           4
   number of lm-projection operators is LMMAX =           8
 
 POTCAR:   PAW_PBE Mo 08Apr2002                   
  local pseudopotential read in
  partial core-charges read in
  atomic valenz-charges read in
  non local Contribution for L=           2  read in
    real space projection operators read in
  non local Contribution for L=           2  read in
    real space projection operators read in
  non local Contribution for L=           0  read in
    real space projection operators read in
  non local Contribution for L=           0  read in
    real space projection operators read in
  non local Contribution for L=           1  read in
    real space projection operators read in
  non local Contribution for L=           1  read in
    real space projection operators read in
    PAW grid and wavefunctions read in
 
   number of l-projection  operators is LMAX  =           6
   number of lm-projection operators is LMMAX =          18
 
 POTCAR:   PAW_PBE W 08Apr2002                    
  local pseudopotential read in
  partial core-charges read in
  atomic valenz-charges read in
  non local Contribution for L=           2  read in
    real space projection operators read in
  non local Contribution for L=           2  read in
    real space projection operators read in
  non local Contribution for L=           0  read in
    real space projection operators read in
  non local Contribution for L=           0  read in
    real space projection operators read in
  non local Contribution for L=           1  read in
    real space projection operators read in
  non local Contribution for L=           1  read in
    real space projection operators read in
    PAW grid and wavefunctions read in
 
   number of l-projection  operators is LMAX  =           6
   number of lm-projection operators is LMMAX =          18
 
  PAW_PBE S 17Jan2003                   :
 energy of atom  1       EATOM= -276.8230
 kinetic energy error for atom=    0.0046 (will be added to EATOM!!)
 PAW_PBE Mo 08Apr2002                   :
 energy of atom  2       EATOM= -217.5180
 kinetic energy error for atom=    0.0025 (will be added to EATOM!!)
 PAW_PBE W 08Apr2002                    :
 energy of atom  3       EATOM= -204.6100
 kinetic energy error for atom=    0.0024 (will be added to EATOM!!)
 
 
 POSCAR: convert from MoS2WS2C7.car  14:23:52 03/
  positions in cartesian coordinates
  No initial velocities read in
 exchange correlation table for  LEXCH =        8
   RHO(1)=    0.500       N(1)  =     2000
   RHO(2)=  100.500       N(2)  =     4000
 


--------------------------------------------------------------------------------------------------------


 ion  position               nearest neighbor table
   1  0.659  0.347  0.693-   6 2.43   6 2.44   6 2.44
   2  0.659  0.347  0.535-   6 2.41   6 2.43   6 2.43
   3  0.000  0.000  0.387-   5 2.43   5 2.44   5 2.44
   4  0.000  0.000  0.228-   5 2.41   5 2.43   5 2.43
   5  0.662  0.331  0.307-   4 2.41   3 2.43   4 2.43   4 2.43   3 2.44   3 2.44
   6  0.990  0.016  0.614-   2 2.41   1 2.43   2 2.43   2 2.43   1 2.44   1 2.44
 
  LATTYP: Found a hexagonal cell.
 ALAT       =     3.1864999999
 C/A-ratio  =     6.2764788956
  
  Lattice vectors:
  
 A1 = (   3.1865000000,   0.0000000000,   0.0000000000)
 A2 = (  -1.5932500000,   2.7595899490,   0.0000000000)
 A3 = (   0.0000000000,   0.0000000000,  20.0000000000)


Analysis of symmetry for initial positions (statically):
=====================================================================
 Subroutine PRICEL returns:
 Original cell was already a primitive cell.
 

 Routine SETGRP: Setting up the symmetry group for a 
 hexagonal supercell.


 Subroutine GETGRP returns: Found  1 space group operations
 (whereof  1 operations were pure point group operations)
 out of a pool of 24 trial point group operations.


The static configuration has the point symmetry C_1 .


Analysis of symmetry for dynamics (positions and initial velocities):
=====================================================================
 Subroutine PRICEL returns:
 Original cell was already a primitive cell.
 

 Routine SETGRP: Setting up the symmetry group for a 
 hexagonal supercell.


 Subroutine GETGRP returns: Found  1 space group operations
 (whereof  1 operations were pure point group operations)
 out of a pool of 24 trial point group operations.


The dynamic configuration has the point symmetry C_1 .


Analysis of constrained symmetry for selective dynamics:
=====================================================================
 Subroutine PRICEL returns:
 Original cell was already a primitive cell.
 

 Routine SETGRP: Setting up the symmetry group for a 
 hexagonal supercell.


 Subroutine GETGRP returns: Found  1 space group operations
 (whereof  1 operations were pure point group operations)
 out of a pool of 24 trial point group operations.


The constrained configuration has the point symmetry C_1 .


 Subroutine INISYM returns: Found  1 space group operations
 (whereof  1 operations are pure point group operations),
 and found     1 'primitive' translations

 
 
 KPOINTS: KPOINTS File, automatically generated   

Automatic generation of k-mesh.
Space group operators:
 irot       det(A)        alpha          n_x          n_y          n_z        tau_x        tau_y        tau_z
    1     1.000000     0.000001     1.000000     0.000000     0.000000     0.000000     0.000000     0.000000
 
 Subroutine IBZKPT returns following result:
 ===========================================
 
 Found     61 irreducible k-points:
 
 Following reciprocal coordinates:
            Coordinates               Weight
  0.000000  0.000000  0.000000      1.000000
  0.090909  0.000000  0.000000      2.000000
  0.181818  0.000000  0.000000      2.000000
  0.272727  0.000000  0.000000      2.000000
  0.363636  0.000000  0.000000      2.000000
  0.454545 -0.000000  0.000000      2.000000
  0.000000  0.090909  0.000000      2.000000
  0.090909  0.090909  0.000000      2.000000
  0.181818  0.090909  0.000000      2.000000
  0.272727  0.090909  0.000000      2.000000
  0.363636  0.090909  0.000000      2.000000
  0.454545  0.090909  0.000000      2.000000
 -0.454545  0.090909  0.000000      2.000000
 -0.363636  0.090909  0.000000      2.000000
 -0.272727  0.090909  0.000000      2.000000
 -0.181818  0.090909  0.000000      2.000000
 -0.090909  0.090909  0.000000      2.000000
  0.000000  0.181818  0.000000      2.000000
  0.090909  0.181818  0.000000      2.000000
  0.181818  0.181818  0.000000      2.000000
  0.272727  0.181818  0.000000      2.000000
  0.363636  0.181818  0.000000      2.000000
  0.454545  0.181818  0.000000      2.000000
 -0.454545  0.181818  0.000000      2.000000
 -0.363636  0.181818  0.000000      2.000000
 -0.272727  0.181818  0.000000      2.000000
 -0.181818  0.181818  0.000000      2.000000
 -0.090909  0.181818  0.000000      2.000000
  0.000000  0.272727  0.000000      2.000000
  0.090909  0.272727  0.000000      2.000000
  0.181818  0.272727  0.000000      2.000000
  0.272727  0.272727  0.000000      2.000000
  0.363636  0.272727  0.000000      2.000000
  0.454545  0.272727  0.000000      2.000000
 -0.454545  0.272727  0.000000      2.000000
 -0.363636  0.272727  0.000000      2.000000
 -0.272727  0.272727  0.000000      2.000000
 -0.181818  0.272727  0.000000      2.000000
 -0.090909  0.272727  0.000000      2.000000
  0.000000  0.363636  0.000000      2.000000
  0.090909  0.363636  0.000000      2.000000
  0.181818  0.363636  0.000000      2.000000
  0.272727  0.363636  0.000000      2.000000
  0.363636  0.363636  0.000000      2.000000
  0.454545  0.363636  0.000000      2.000000
 -0.454545  0.363636  0.000000      2.000000
 -0.363636  0.363636  0.000000      2.000000
 -0.272727  0.363636  0.000000      2.000000
 -0.181818  0.363636  0.000000      2.000000
 -0.090909  0.363636  0.000000      2.000000
  0.000000  0.454545  0.000000      2.000000
  0.090909  0.454545  0.000000      2.000000
  0.181818  0.454545  0.000000      2.000000
  0.272727  0.454545  0.000000      2.000000
  0.363636  0.454545  0.000000      2.000000
  0.454545  0.454545  0.000000      2.000000
 -0.454545  0.454545  0.000000      2.000000
 -0.363636  0.454545  0.000000      2.000000
 -0.272727  0.454545  0.000000      2.000000
 -0.181818  0.454545  0.000000      2.000000
 -0.090909  0.454545  0.000000      2.000000
 
 Following cartesian coordinates:
            Coordinates               Weight
  0.000000  0.000000  0.000000      1.000000
  0.028529  0.016471  0.000000      2.000000
  0.057059  0.032943  0.000000      2.000000
  0.085588  0.049414  0.000000      2.000000
  0.114118  0.065886  0.000000      2.000000
  0.142647  0.082357  0.000000      2.000000
  0.000000  0.032943  0.000000      2.000000
  0.028529  0.049414  0.000000      2.000000
  0.057059  0.065886  0.000000      2.000000
  0.085588  0.082357  0.000000      2.000000
  0.114118  0.098829  0.000000      2.000000
  0.142647  0.115300  0.000000      2.000000
 -0.142647 -0.049414  0.000000      2.000000
 -0.114118 -0.032943  0.000000      2.000000
 -0.085588 -0.016471  0.000000      2.000000
 -0.057059  0.000000  0.000000      2.000000
 -0.028529  0.016471  0.000000      2.000000
  0.000000  0.065886  0.000000      2.000000
  0.028529  0.082357  0.000000      2.000000
  0.057059  0.098829  0.000000      2.000000
  0.085588  0.115300  0.000000      2.000000
  0.114118  0.131772  0.000000      2.000000
  0.142647  0.148243  0.000000      2.000000
 -0.142647 -0.016471  0.000000      2.000000
 -0.114118  0.000000  0.000000      2.000000
 -0.085588  0.016471  0.000000      2.000000
 -0.057059  0.032943  0.000000      2.000000
 -0.028529  0.049414  0.000000      2.000000
  0.000000  0.098829  0.000000      2.000000
  0.028529  0.115300  0.000000      2.000000
  0.057059  0.131772  0.000000      2.000000
  0.085588  0.148243  0.000000      2.000000
  0.114118  0.164715  0.000000      2.000000
  0.142647  0.181186  0.000000      2.000000
 -0.142647  0.016471  0.000000      2.000000
 -0.114118  0.032943  0.000000      2.000000
 -0.085588  0.049414  0.000000      2.000000
 -0.057059  0.065886  0.000000      2.000000
 -0.028529  0.082357  0.000000      2.000000
  0.000000  0.131772  0.000000      2.000000
  0.028529  0.148243  0.000000      2.000000
  0.057059  0.164715  0.000000      2.000000
  0.085588  0.181186  0.000000      2.000000
  0.114118  0.197658  0.000000      2.000000
  0.142647  0.214129  0.000000      2.000000
 -0.142647  0.049414  0.000000      2.000000
 -0.114118  0.065886  0.000000      2.000000
 -0.085588  0.082357  0.000000      2.000000
 -0.057059  0.098829  0.000000      2.000000
 -0.028529  0.115300  0.000000      2.000000
  0.000000  0.164715  0.000000      2.000000
  0.028529  0.181186  0.000000      2.000000
  0.057059  0.197658  0.000000      2.000000
  0.085588  0.214129  0.000000      2.000000
  0.114118  0.230601  0.000000      2.000000
  0.142647  0.247072  0.000000      2.000000
 -0.142647  0.082357  0.000000      2.000000
 -0.114118  0.098829  0.000000      2.000000
 -0.085588  0.115300  0.000000      2.000000
 -0.057059  0.131772  0.000000      2.000000
 -0.028529  0.148243  0.000000      2.000000
 


--------------------------------------------------------------------------------------------------------




 Dimension of arrays:
   k-points           NKPTS =     61   k-points in BZ     NKDIM =     61   number of bands    NBANDS=     24
   number of dos      NEDOS =    301   number of ions     NIONS =      6
   non local maximal  LDIM  =      6   non local SUM 2l+1 LMDIM =     18
   total plane-waves  NPLWV =  25088
   max r-space proj   IRMAX =      1   max aug-charges    IRDMAX=   2499
   dimension x,y,z NGX =    16 NGY =   16 NGZ =   98
   dimension x,y,z NGXF=    20 NGYF=   20 NGZF=  126
   support grid    NGXF=    20 NGYF=   20 NGZF=  126
   ions per type =               4   1   1
   NGX,Y,Z   is equivalent  to a cutoff of   8.35,  8.35,  8.15 a.u.
   NGXF,Y,Z  is equivalent  to a cutoff of  10.43, 10.43, 10.47 a.u.

 SYSTEM =  VaspCalc                                
 POSCAR =  convert from MoS2WS2C7.car  14:23:52 03/

 Startparameter for this run:
   NWRITE =      1    write-flag & timer
   PREC   = med       normal or accurate (medium, high low for compatibility)
   ISTART =      0    job   : 0-new  1-cont  2-samecut
   ICHARG =      2    charge: 1-file 2-atom 10-const
   ISPIN  =      1    spin polarized calculation?
   LNONCOLLINEAR =      F non collinear calculations
   LSORBIT =      F    spin-orbit coupling
   INIWAV =      1    electr: 0-lowe 1-rand  2-diag
   LASPH  =      F    aspherical Exc in radial PAW
   METAGGA=      F    non-selfconsistent MetaGGA calc.

 Electronic Relaxation 1
   ENCUT  =  400.0 eV  29.40 Ry    5.42 a.u.   5.20  5.20 32.61*2*pi/ulx,y,z
   ENINI  =  400.0     initial cutoff
   ENAUG  =  373.4 eV  augmentation charge cutoff
   NELM   =    400;   NELMIN=  4; NELMDL=  0     # of ELM steps 
   EDIFF  = 0.1E-05   stopping-criterion for ELM
   LREAL  =      F    real-space projection
   NLSPLINE    = F    spline interpolate recip. space projectors
   LCOMPAT=      F    compatible to vasp.4.4
   GGA_COMPAT  = T    GGA compatible to vasp.4.4-vasp.4.6
   LMAXPAW     = -100 max onsite density
   LMAXMIX     =    2 max onsite mixed and CHGCAR
   VOSKOWN=      0    Vosko Wilk Nusair interpolation
   ROPT   =    0.00000   0.00000   0.00000
 Ionic relaxation
   EDIFFG = -.1E-01   stopping-criterion for IOM
   NSW    =   1000    number of steps for IOM
   NBLOCK =      1;   KBLOCK =   1000    inner block; outer block 
   IBRION =      2    ionic relax: 0-MD 1-quasi-New 2-CG
   NFREE  =      1    steps in history (QN), initial steepest desc. (CG)
   ISIF   =      2    stress and relaxation
   IWAVPR =     11    prediction:  0-non 1-charg 2-wave 3-comb
   ISYM   =      2    0-nonsym 1-usesym 2-fastsym
   LCORR  =      T    Harris-Foulkes like correction to forces

   POTIM  = 0.5000    time-step for ionic-motion
   TEIN   =    0.0    initial temperature
   TEBEG  =    0.0;   TEEND  =   0.0 temperature during run
   SMASS  =  -3.00    Nose mass-parameter (am)
   estimated Nose-frequenzy (Omega)   =  0.10E-29 period in steps =****** mass=  -0.232E-27a.u.
   SCALEE = 1.0000    scale energy and forces
   NPACO  =    256;   APACO  = 16.0  distance and # of slots for P.C.
   PSTRESS=    0.0 pullay stress

  Mass of Ions in am
   POMASS =  32.07 95.94183.85
  Ionic Valenz
   ZVAL   =   6.00  6.00  6.00
  Atomic Wigner-Seitz radii
   RWIGS  =  -1.00 -1.00 -1.00
  virtual crystal weights 
   VCA    =   1.00  1.00  1.00
   NELECT =      36.0000    total number of electrons
   NUPDOWN=      -1.0000    fix difference up-down

 DOS related values:
   EMIN   =  10.00;   EMAX   =-10.00  energy-range for DOS
   EFERMI =   0.00
   ISMEAR =     0;   SIGMA  =   0.10  broadening in eV -4-tet -1-fermi 0-gaus

 Electronic relaxation 2 (details)
   IALGO  =     68    algorithm
   LDIAG  =      T    sub-space diagonalisation (order eigenvalues)
   LSUBROT=      F    optimize rotation matrix (better conditioning)
   TURBO    =      0    0=normal 1=particle mesh
   IRESTART =      0    0=no restart 2=restart with 2 vectors
   NREBOOT  =      0    no. of reboots
   NMIN     =      0    reboot dimension
   EREF     =   0.00    reference energy to select bands
   IMIX   =      4    mixing-type and parameters
     AMIX     =   0.40;   BMIX     =  1.00
     AMIX_MAG =   1.60;   BMIX_MAG =  1.00
     AMIN     =   0.10
     WC   =   100.;   INIMIX=   1;  MIXPRE=   1;  MAXMIX= -45

 Intra band minimization:
   WEIMIN = 0.0010     energy-eigenvalue tresh-hold
   EBREAK =  0.10E-07  absolut break condition
   DEPER  =   0.30     relativ break condition  

   TIME   =   0.40     timestep for ELM

  volume/ion in A,a.u.               =      29.31       197.80
  Fermi-wavevector in a.u.,A,eV,Ry     =   0.964820  1.823245 12.665352  0.930877
  Thomas-Fermi vector in A             =   2.094484
 
 Write flags
   LWAVE        =      F    write WAVECAR
   LDOWNSAMPLE  =      F    k-point downsampling of WAVECAR
   LCHARG       =      F    write CHGCAR
   LVTOT        =      F    write LOCPOT, total local potential
   LVHAR        =      F    write LOCPOT, Hartree potential only
   LELF         =      F    write electronic localiz. function (ELF)
   LORBIT       =      0    0 simple, 1 ext, 2 COOP (PROOUT), +10 PAW based schemes


 Dipole corrections
   LMONO  =      F    monopole corrections only (constant potential shift)
   LDIPOL =      F    correct potential (dipole corrections)
   IDIPOL =      0    1-x, 2-y, 3-z, 4-all directions 
   EPSILON=  1.0000000 bulk dielectric constant

 Exchange correlation treatment:
   GGA     =    --    GGA type
   LEXCH   =     8    internal setting for exchange type
   VOSKOWN=      0    Vosko Wilk Nusair interpolation
   LHFCALC =     F    Hartree Fock is set to
   LHFONE  =     F    Hartree Fock one center treatment
   AEXX    =    0.0000 exact exchange contribution

 Linear response parameters
   LEPSILON=     F    determine dielectric tensor
   LRPA    =     F    only Hartree local field effects (RPA)
   LNABLA  =     F    use nabla operator in PAW spheres
   LVEL    =     F    velocity operator in full k-point grid
   LINTERFAST=   F  fast interpolation
   KINTER  =     0    interpolate to denser k-point grid
   CSHIFT  =0.1000    complex shift for real part using Kramers Kronig
   OMEGAMAX=  -1.0    maximum frequency
   DEG_THRESHOLD= 0.2000000E-02 threshold for treating states as degnerate
   RTIME   =   -0.100 relaxation time in fs
  (WPLASMAI=    0.000 imaginary part of plasma frequency in eV, 0.658/RTIME)
   DFIELD  = 0.0000000 0.0000000 0.0000000 field for delta impulse in time
 
 Orbital magnetization related:
   ORBITALMAG=     F  switch on orbital magnetization
   LCHIMAG   =     F  perturbation theory with respect to B field
   DQ        =  0.001000  dq finite difference perturbation B field
   LLRAUG    =     F  two centre corrections for induced B field



--------------------------------------------------------------------------------------------------------


 conjugate gradient relaxation of ions
   using selective dynamics as specified on POSCAR
   WARNING: If single coordinates had been selected the selection of coordinates
            is made according to the corresponding   d i r e c t   coordinates!
            Don't support selection of single cartesian coordinates -- sorry ...
  !
 charge density and potential will be updated during run
 non-spin polarized calculation
 RMM-DIIS sequential band-by-band and
  variant of blocked Davidson during initial phase
 perform sub-space diagonalisation
    before iterative eigenvector-optimisation
 modified Broyden-mixing scheme, WC =      100.0
 initial mixing is a Kerker type mixing with AMIX =  0.4000 and BMIX =      1.0000
 Hartree-type preconditioning will be used
 using additional bands            6
 reciprocal scheme for non local part
 use partial core corrections
 calculate Harris-corrections to forces 
   (improved forces if not selfconsistent)
 use gradient corrections 
 use of overlap-Matrix (Vanderbilt PP)
 Gauss-broadening in eV      SIGMA  =   0.10


--------------------------------------------------------------------------------------------------------


  energy-cutoff  :      400.00
  volume of cell :      175.87
      direct lattice vectors                 reciprocal lattice vectors
     3.186500000  0.000000000  0.000000000     0.313823945  0.181186339  0.000000000
    -1.593250000  2.759589949  0.000000000     0.000000000  0.362372678  0.000000000
     0.000000000  0.000000000 20.000000000     0.000000000  0.000000000  0.050000000

  length of vectors
     3.186500000  3.186500000 20.000000000     0.362372678  0.362372678  0.050000000


 
 k-points in units of 2pi/SCALE and weight: KPOINTS File, automatically generated   
   0.00000000  0.00000000  0.00000000       0.008
   0.02852945  0.01647149  0.00000000       0.017
   0.05705890  0.03294297  0.00000000       0.017
   0.08558835  0.04941446  0.00000000       0.017
   0.11411780  0.06588594  0.00000000       0.017
   0.14264725  0.08235743  0.00000000       0.017
   0.00000000  0.03294297  0.00000000       0.017
   0.02852945  0.04941446  0.00000000       0.017
   0.05705890  0.06588594  0.00000000       0.017
   0.08558835  0.08235743  0.00000000       0.017
   0.11411780  0.09882891  0.00000000       0.017
   0.14264725  0.11530040  0.00000000       0.017
  -0.14264725 -0.04941446  0.00000000       0.017
  -0.11411780 -0.03294297  0.00000000       0.017
  -0.08558835 -0.01647149  0.00000000       0.017
  -0.05705890  0.00000000  0.00000000       0.017
  -0.02852945  0.01647149  0.00000000       0.017
   0.00000000  0.06588594  0.00000000       0.017
   0.02852945  0.08235743  0.00000000       0.017
   0.05705890  0.09882891  0.00000000       0.017
   0.08558835  0.11530040  0.00000000       0.017
   0.11411780  0.13177188  0.00000000       0.017
   0.14264725  0.14824337  0.00000000       0.017
  -0.14264725 -0.01647149  0.00000000       0.017
  -0.11411780  0.00000000  0.00000000       0.017
  -0.08558835  0.01647149  0.00000000       0.017
  -0.05705890  0.03294297  0.00000000       0.017
  -0.02852945  0.04941446  0.00000000       0.017
   0.00000000  0.09882891  0.00000000       0.017
   0.02852945  0.11530040  0.00000000       0.017
   0.05705890  0.13177188  0.00000000       0.017
   0.08558835  0.14824337  0.00000000       0.017
   0.11411780  0.16471485  0.00000000       0.017
   0.14264725  0.18118634  0.00000000       0.017
  -0.14264725  0.01647149  0.00000000       0.017
  -0.11411780  0.03294297  0.00000000       0.017
  -0.08558835  0.04941446  0.00000000       0.017
  -0.05705890  0.06588594  0.00000000       0.017
  -0.02852945  0.08235743  0.00000000       0.017
   0.00000000  0.13177188  0.00000000       0.017
   0.02852945  0.14824337  0.00000000       0.017
   0.05705890  0.16471485  0.00000000       0.017
   0.08558835  0.18118634  0.00000000       0.017
   0.11411780  0.19765782  0.00000000       0.017
   0.14264725  0.21412931  0.00000000       0.017
  -0.14264725  0.04941446  0.00000000       0.017
  -0.11411780  0.06588594  0.00000000       0.017
  -0.08558835  0.08235743  0.00000000       0.017
  -0.05705890  0.09882891  0.00000000       0.017
  -0.02852945  0.11530040  0.00000000       0.017
   0.00000000  0.16471485  0.00000000       0.017
   0.02852945  0.18118634  0.00000000       0.017
   0.05705890  0.19765782  0.00000000       0.017
   0.08558835  0.21412931  0.00000000       0.017
   0.11411780  0.23060080  0.00000000       0.017
   0.14264725  0.24707228  0.00000000       0.017
  -0.14264725  0.08235743  0.00000000       0.017
  -0.11411780  0.09882891  0.00000000       0.017
  -0.08558835  0.11530040  0.00000000       0.017
  -0.05705890  0.13177188  0.00000000       0.017
  -0.02852945  0.14824337  0.00000000       0.017
 
 k-points in reciprocal lattice and weights: KPOINTS File, automatically generated   
   0.00000000  0.00000000  0.00000000       0.008
   0.09090909  0.00000000  0.00000000       0.017
   0.18181818  0.00000000  0.00000000       0.017
   0.27272727  0.00000000  0.00000000       0.017
   0.36363636  0.00000000  0.00000000       0.017
   0.45454545 -0.00000000  0.00000000       0.017
   0.00000000  0.09090909  0.00000000       0.017
   0.09090909  0.09090909  0.00000000       0.017
   0.18181818  0.09090909  0.00000000       0.017
   0.27272727  0.09090909  0.00000000       0.017
   0.36363636  0.09090909  0.00000000       0.017
   0.45454545  0.09090909  0.00000000       0.017
  -0.45454545  0.09090909  0.00000000       0.017
  -0.36363636  0.09090909  0.00000000       0.017
  -0.27272727  0.09090909  0.00000000       0.017
  -0.18181818  0.09090909  0.00000000       0.017
  -0.09090909  0.09090909  0.00000000       0.017
   0.00000000  0.18181818  0.00000000       0.017
   0.09090909  0.18181818  0.00000000       0.017
   0.18181818  0.18181818  0.00000000       0.017
   0.27272727  0.18181818  0.00000000       0.017
   0.36363636  0.18181818  0.00000000       0.017
   0.45454545  0.18181818  0.00000000       0.017
  -0.45454545  0.18181818  0.00000000       0.017
  -0.36363636  0.18181818  0.00000000       0.017
  -0.27272727  0.18181818  0.00000000       0.017
  -0.18181818  0.18181818  0.00000000       0.017
  -0.09090909  0.18181818  0.00000000       0.017
   0.00000000  0.27272727  0.00000000       0.017
   0.09090909  0.27272727  0.00000000       0.017
   0.18181818  0.27272727  0.00000000       0.017
   0.27272727  0.27272727  0.00000000       0.017
   0.36363636  0.27272727  0.00000000       0.017
   0.45454545  0.27272727  0.00000000       0.017
  -0.45454545  0.27272727  0.00000000       0.017
  -0.36363636  0.27272727  0.00000000       0.017
  -0.27272727  0.27272727  0.00000000       0.017
  -0.18181818  0.27272727  0.00000000       0.017
  -0.09090909  0.27272727  0.00000000       0.017
   0.00000000  0.36363636  0.00000000       0.017
   0.09090909  0.36363636  0.00000000       0.017
   0.18181818  0.36363636  0.00000000       0.017
   0.27272727  0.36363636  0.00000000       0.017
   0.36363636  0.36363636  0.00000000       0.017
   0.45454545  0.36363636  0.00000000       0.017
  -0.45454545  0.36363636  0.00000000       0.017
  -0.36363636  0.36363636  0.00000000       0.017
  -0.27272727  0.36363636  0.00000000       0.017
  -0.18181818  0.36363636  0.00000000       0.017
  -0.09090909  0.36363636  0.00000000       0.017
   0.00000000  0.45454545  0.00000000       0.017
   0.09090909  0.45454545  0.00000000       0.017
   0.18181818  0.45454545  0.00000000       0.017
   0.27272727  0.45454545  0.00000000       0.017
   0.36363636  0.45454545  0.00000000       0.017
   0.45454545  0.45454545  0.00000000       0.017
  -0.45454545  0.45454545  0.00000000       0.017
  -0.36363636  0.45454545  0.00000000       0.017
  -0.27272727  0.45454545  0.00000000       0.017
  -0.18181818  0.45454545  0.00000000       0.017
  -0.09090909  0.45454545  0.00000000       0.017
 
 position of ions in fractional coordinates (direct lattice) 
   0.65900920  0.34686985  0.69335133
   0.65900920  0.34686985  0.53484133
   0.00000000  0.00000000  0.38651800
   0.00000000  0.00000000  0.22800800
   0.66237839  0.33118919  0.30683333
   0.99019839  0.01568065  0.61366667
 
 position of ions in cartesian coordinates  (Angst):
   1.54728242  0.95721854 13.86702667
   1.54728242  0.95721854 10.69682667
   0.00000000  0.00000000  7.73036000
   0.00000000  0.00000000  4.56016000
   1.58300155  0.91394637  6.13666667
   3.13028397  0.04327218 12.27333333
 


--------------------------------------------------------------------------------------------------------


 k-point  1 :   0.0000 0.0000 0.0000  plane waves:    3185
 k-point  2 :   0.0909 0.0000 0.0000  plane waves:    3173
 k-point  3 :   0.1818 0.0000 0.0000  plane waves:    3175
 k-point  4 :   0.2727 0.0000 0.0000  plane waves:    3193
 k-point  5 :   0.3636 0.0000 0.0000  plane waves:    3209
 k-point  6 :   0.4545-0.0000 0.0000  plane waves:    3205
 k-point  7 :   0.0000 0.0909 0.0000  plane waves:    3173
 k-point  8 :   0.0909 0.0909 0.0000  plane waves:    3179
 k-point  9 :   0.1818 0.0909 0.0000  plane waves:    3189
 k-point 10 :   0.2727 0.0909 0.0000  plane waves:    3200
 k-point 11 :   0.3636 0.0909 0.0000  plane waves:    3209
 k-point 12 :   0.4545 0.0909 0.0000  plane waves:    3196
 k-point 13 :  -0.4545 0.0909 0.0000  plane waves:    3209
 k-point 14 :  -0.3636 0.0909 0.0000  plane waves:    3200
 k-point 15 :  -0.2727 0.0909 0.0000  plane waves:    3189
 k-point 16 :  -0.1818 0.0909 0.0000  plane waves:    3179
 k-point 17 :  -0.0909 0.0909 0.0000  plane waves:    3173
 k-point 18 :   0.0000 0.1818 0.0000  plane waves:    3175
 k-point 19 :   0.0909 0.1818 0.0000  plane waves:    3189
 k-point 20 :   0.1818 0.1818 0.0000  plane waves:    3199
 k-point 21 :   0.2727 0.1818 0.0000  plane waves:    3199
 k-point 22 :   0.3636 0.1818 0.0000  plane waves:    3201
 k-point 23 :   0.4545 0.1818 0.0000  plane waves:    3201
 k-point 24 :  -0.4545 0.1818 0.0000  plane waves:    3199
 k-point 25 :  -0.3636 0.1818 0.0000  plane waves:    3199
 k-point 26 :  -0.2727 0.1818 0.0000  plane waves:    3189
 k-point 27 :  -0.1818 0.1818 0.0000  plane waves:    3175
 k-point 28 :  -0.0909 0.1818 0.0000  plane waves:    3179
 k-point 29 :   0.0000 0.2727 0.0000  plane waves:    3193
 k-point 30 :   0.0909 0.2727 0.0000  plane waves:    3200
 k-point 31 :   0.1818 0.2727 0.0000  plane waves:    3199
 k-point 32 :   0.2727 0.2727 0.0000  plane waves:    3191
 k-point 33 :   0.3636 0.2727 0.0000  plane waves:    3183
 k-point 34 :   0.4545 0.2727 0.0000  plane waves:    3191
 k-point 35 :  -0.4545 0.2727 0.0000  plane waves:    3199
 k-point 36 :  -0.3636 0.2727 0.0000  plane waves:    3200
 k-point 37 :  -0.2727 0.2727 0.0000  plane waves:    3193
 k-point 38 :  -0.1818 0.2727 0.0000  plane waves:    3189
 k-point 39 :  -0.0909 0.2727 0.0000  plane waves:    3189
 k-point 40 :   0.0000 0.3636 0.0000  plane waves:    3209
 k-point 41 :   0.0909 0.3636 0.0000  plane waves:    3209
 k-point 42 :   0.1818 0.3636 0.0000  plane waves:    3201
 k-point 43 :   0.2727 0.3636 0.0000  plane waves:    3183
 k-point 44 :   0.3636 0.3636 0.0000  plane waves:    3183
 k-point 45 :   0.4545 0.3636 0.0000  plane waves:    3201
 k-point 46 :  -0.4545 0.3636 0.0000  plane waves:    3209
 k-point 47 :  -0.3636 0.3636 0.0000  plane waves:    3209
 k-point 48 :  -0.2727 0.3636 0.0000  plane waves:    3200
 k-point 49 :  -0.1818 0.3636 0.0000  plane waves:    3199
 k-point 50 :  -0.0909 0.3636 0.0000  plane waves:    3200
 k-point 51 :   0.0000 0.4545 0.0000  plane waves:    3205
 k-point 52 :   0.0909 0.4545 0.0000  plane waves:    3196
 k-point 53 :   0.1818 0.4545 0.0000  plane waves:    3201
 k-point 54 :   0.2727 0.4545 0.0000  plane waves:    3191
 k-point 55 :   0.3636 0.4545 0.0000  plane waves:    3201
 k-point 56 :   0.4545 0.4545 0.0000  plane waves:    3196
 k-point 57 :  -0.4545 0.4545 0.0000  plane waves:    3205
 k-point 58 :  -0.3636 0.4545 0.0000  plane waves:    3209
 k-point 59 :  -0.2727 0.4545 0.0000  plane waves:    3199
 k-point 60 :  -0.1818 0.4545 0.0000  plane waves:    3199
 k-point 61 :  -0.0909 0.4545 0.0000  plane waves:    3209

 maximum and minimum number of plane-waves per node :       558      512

 maximum number of plane-waves:      3209
 maximum index in each direction: 
   IXMAX=    5   IYMAX=    5   IZMAX=   32
   IXMIN=   -5   IYMIN=   -5   IZMIN=  -32


 parallel 3D FFT for wavefunctions:
    minimum data exchange during FFTs selected (reduces bandwidth)
 parallel 3D FFT for charge:
    minimum data exchange during FFTs selected (reduces bandwidth)


 total amount of memory used by VASP MPI-rank0    48165. kBytes
=======================================================================

   base      :      30000. kBytes
   nonl-proj :      14281. kBytes
   fftplans  :        238. kBytes
   grid      :        352. kBytes
   one-center:         15. kBytes
   wavefun   :       3279. kBytes
 
     INWAV:  cpu time    0.0000: real time    0.0001
 Broyden mixing: mesh for mixing (old mesh)
   NGX = 11   NGY = 11   NGZ = 65
  (NGX  = 20   NGY  = 20   NGZ  =126)
  gives a total of   7865 points

 initial charge density was supplied:
 charge density of overlapping atoms calculated
 number of electron      36.0000000 magnetization 
 keeping initial charge density in first step


--------------------------------------------------------------------------------------------------------


 Maximum index for augmentation-charges          172 (set IRDMAX)


--------------------------------------------------------------------------------------------------------


 First call to EWALD:  gamma=   0.316
 Maximum number of real-space cells 5x 5x 1
 Maximum number of reciprocal cells 2x 2x 9

    FEWALD:  cpu time    0.0012: real time    0.0012


--------------------------------------- Iteration      1(   1)  ---------------------------------------


    POTLOK:  cpu time    0.0043: real time    0.0057
    SETDIJ:  cpu time    0.0016: real time    0.0016
     EDDAV:  cpu time    0.3900: real time    0.3912
       DOS:  cpu time    0.0011: real time    0.0011
    --------------------------------------------
      LOOP:  cpu time    0.3970: real time    0.3997

 eigenvalue-minimisations  :  2928
 total energy-change (2. order) : 0.2040731E+03  (-0.1306734E+04)
 number of electron      36.0000000 magnetization 
 augmentation part       36.0000000 magnetization 

 Free energy of the ion-electron system (eV)
  ---------------------------------------------------
  alpha Z        PSCENC =        68.88242450
  Ewald energy   TEWEN  =      2358.92330674
  -Hartree energ DENC   =     -3922.28712091
  -exchange      EXHF   =         0.00000000
  -V(xc)+E(xc)   XCENC  =       -59.27676862
  PAW double counting   =       788.69199195     -645.62869777
  entropy T*S    EENTRO =        -0.01004813
  eigenvalues    EBANDS =        85.38129313
  atomic energy  EATOM  =      1529.39674839
  Solvation  Ediel_sol  =         0.00000000
  ---------------------------------------------------
  free energy    TOTEN  =       204.07312930 eV

  energy without entropy =      204.08317743  energy(sigma->0) =      204.07815336


--------------------------------------------------------------------------------------------------------




--------------------------------------- Iteration      1(   2)  ---------------------------------------


     EDDAV:  cpu time    0.4955: real time    0.4968
       DOS:  cpu time    0.0012: real time    0.0012
    --------------------------------------------
      LOOP:  cpu time    0.4967: real time    0.4980

 eigenvalue-minimisations  :  4184
 total energy-change (2. order) :-0.2329627E+03  (-0.2257718E+03)
 number of electron      36.0000000 magnetization 
 augmentation part       36.0000000 magnetization 

 Free energy of the ion-electron system (eV)
  ---------------------------------------------------
  alpha Z        PSCENC =        68.88242450
  Ewald energy   TEWEN  =      2358.92330674
  -Hartree energ DENC   =     -3922.28712091
  -exchange      EXHF   =         0.00000000
  -V(xc)+E(xc)   XCENC  =       -59.27676862
  PAW double counting   =       788.69199195     -645.62869777
  entropy T*S    EENTRO =        -0.00261062
  eigenvalues    EBANDS =      -147.58884543
  atomic energy  EATOM  =      1529.39674839
  Solvation  Ediel_sol  =         0.00000000
  ---------------------------------------------------
  free energy    TOTEN  =       -28.88957175 eV

  energy without entropy =      -28.88696113  energy(sigma->0) =      -28.88826644


--------------------------------------------------------------------------------------------------------




--------------------------------------- Iteration      1(   3)  ---------------------------------------


     EDDAV:  cpu time    0.4713: real time    0.4729
       DOS:  cpu time    0.0009: real time    0.0009
    --------------------------------------------
      LOOP:  cpu time    0.4722: real time    0.4737

 eigenvalue-minimisations  :  3840
 total energy-change (2. order) :-0.1908753E+02  (-0.1886341E+02)
 number of electron      36.0000000 magnetization 
 augmentation part       36.0000000 magnetization 

 Free energy of the ion-electron system (eV)
  ---------------------------------------------------
  alpha Z        PSCENC =        68.88242450
  Ewald energy   TEWEN  =      2358.92330674
  -Hartree energ DENC   =     -3922.28712091
  -exchange      EXHF   =         0.00000000
  -V(xc)+E(xc)   XCENC  =       -59.27676862
  PAW double counting   =       788.69199195     -645.62869777
  entropy T*S    EENTRO =        -0.00000000
  eigenvalues    EBANDS =      -166.67898136
  atomic energy  EATOM  =      1529.39674839
  Solvation  Ediel_sol  =         0.00000000
  ---------------------------------------------------
  free energy    TOTEN  =       -47.97709706 eV

  energy without entropy =      -47.97709706  energy(sigma->0) =      -47.97709706


--------------------------------------------------------------------------------------------------------




--------------------------------------- Iteration      1(   4)  ---------------------------------------


     EDDAV:  cpu time    0.4994: real time    0.5007
       DOS:  cpu time    0.0009: real time    0.0009
    --------------------------------------------
      LOOP:  cpu time    0.5003: real time    0.5016

 eigenvalue-minimisations  :  4248
 total energy-change (2. order) :-0.5569876E+00  (-0.5556669E+00)
 number of electron      36.0000000 magnetization 
 augmentation part       36.0000000 magnetization 

 Free energy of the ion-electron system (eV)
  ---------------------------------------------------
  alpha Z        PSCENC =        68.88242450
  Ewald energy   TEWEN  =      2358.92330674
  -Hartree energ DENC   =     -3922.28712091
  -exchange      EXHF   =         0.00000000
  -V(xc)+E(xc)   XCENC  =       -59.27676862
  PAW double counting   =       788.69199195     -645.62869777
  entropy T*S    EENTRO =        -0.00000000
  eigenvalues    EBANDS =      -167.23596894
  atomic energy  EATOM  =      1529.39674839
  Solvation  Ediel_sol  =         0.00000000
  ---------------------------------------------------
  free energy    TOTEN  =       -48.53408464 eV

  energy without entropy =      -48.53408464  energy(sigma->0) =      -48.53408464


--------------------------------------------------------------------------------------------------------




--------------------------------------- Iteration      1(   5)  ---------------------------------------


     EDDAV:  cpu time    0.4686: real time    0.4700
       DOS:  cpu time    0.0009: real time    0.0009
    CHARGE:  cpu time    0.0164: real time    0.0164
    MIXING:  cpu time    0.0005: real time    0.0006
    --------------------------------------------
      LOOP:  cpu time    0.4864: real time    0.4879

 eigenvalue-minimisations  :  3920
 total energy-change (2. order) :-0.1531108E-01  (-0.1530523E-01)
 number of electron      36.0000131 magnetization 
 augmentation part       -2.1827637 magnetization 

 Broyden mixing:
  rms(total) = 0.93122E+00    rms(broyden)= 0.93120E+00
  rms(prec ) = 0.10691E+01
  weight for this iteration     100.00

 Free energy of the ion-electron system (eV)
  ---------------------------------------------------
  alpha Z        PSCENC =        68.88242450
  Ewald energy   TEWEN  =      2358.92330674
  -Hartree energ DENC   =     -3922.28712091
  -exchange      EXHF   =         0.00000000
  -V(xc)+E(xc)   XCENC  =       -59.27676862
  PAW double counting   =       788.69199195     -645.62869777
  entropy T*S    EENTRO =        -0.00000000
  eigenvalues    EBANDS =      -167.25128002
  atomic energy  EATOM  =      1529.39674839
  Solvation  Ediel_sol  =         0.00000000
  ---------------------------------------------------
  free energy    TOTEN  =       -48.54939572 eV

  energy without entropy =      -48.54939572  energy(sigma->0) =      -48.54939572


--------------------------------------------------------------------------------------------------------




--------------------------------------- Iteration      1(   6)  ---------------------------------------


    POTLOK:  cpu time    0.0018: real time    0.0020
    SETDIJ:  cpu time    0.0014: real time    0.0014
    EDDIAG:  cpu time    0.1028: real time    0.1031
  RMM-DIIS:  cpu time    0.1953: real time    0.1957
    ORTHCH:  cpu time    0.0099: real time    0.0099
       DOS:  cpu time    0.0011: real time    0.0011
    CHARGE:  cpu time    0.0158: real time    0.0158
    MIXING:  cpu time    0.0003: real time    0.0003
    --------------------------------------------
      LOOP:  cpu time    0.3283: real time    0.3293

 eigenvalue-minimisations  :  3060
 total energy-change (2. order) : 0.2432176E+01  (-0.1493524E+01)
 number of electron      36.0000136 magnetization 
 augmentation part       -1.3582742 magnetization 

 Broyden mixing:
  rms(total) = 0.33410E+00    rms(broyden)= 0.33410E+00
  rms(prec ) = 0.41739E+00
  weight for this iteration     100.00

 eigenvalues of (default mixing * dielectric matrix)
  average eigenvalue GAMMA=   0.9156
  0.9156

 Free energy of the ion-electron system (eV)
  ---------------------------------------------------
  alpha Z        PSCENC =        68.88242450
  Ewald energy   TEWEN  =      2358.92330674
  -Hartree energ DENC   =     -3921.20614476
  -exchange      EXHF   =         0.00000000
  -V(xc)+E(xc)   XCENC  =       -57.55272103
  PAW double counting   =       825.59877295     -684.36016687
  entropy T*S    EENTRO =        -0.00000052
  eigenvalues    EBANDS =      -165.79943920
  atomic energy  EATOM  =      1529.39674839
  Solvation  Ediel_sol  =         0.00000000
  ---------------------------------------------------
  free energy    TOTEN  =       -46.11721980 eV

  energy without entropy =      -46.11721928  energy(sigma->0) =      -46.11721954


--------------------------------------------------------------------------------------------------------




--------------------------------------- Iteration      1(   7)  ---------------------------------------


    POTLOK:  cpu time    0.0018: real time    0.0019
    SETDIJ:  cpu time    0.0012: real time    0.0012
    EDDIAG:  cpu time    0.1023: real time    0.1026
  RMM-DIIS:  cpu time    0.1882: real time    0.1886
    ORTHCH:  cpu time    0.0099: real time    0.0099
       DOS:  cpu time    0.0009: real time    0.0009
    CHARGE:  cpu time    0.0157: real time    0.0158
    MIXING:  cpu time    0.0002: real time    0.0002
    --------------------------------------------
      LOOP:  cpu time    0.3203: real time    0.3211

 eigenvalue-minimisations  :  2966
 total energy-change (2. order) : 0.5649792E+00  (-0.1450504E+00)
 number of electron      36.0000132 magnetization 
 augmentation part       -1.5691815 magnetization 

 Broyden mixing:
  rms(total) = 0.19664E+00    rms(broyden)= 0.19664E+00
  rms(prec ) = 0.21795E+00
  weight for this iteration     100.00

 eigenvalues of (default mixing * dielectric matrix)
  average eigenvalue GAMMA=   1.1491
  1.5950  0.7031

 Free energy of the ion-electron system (eV)
  ---------------------------------------------------
  alpha Z        PSCENC =        68.88242450
  Ewald energy   TEWEN  =      2358.92330674
  -Hartree energ DENC   =     -3927.22618584
  -exchange      EXHF   =         0.00000000
  -V(xc)+E(xc)   XCENC  =       -57.61826488
  PAW double counting   =       859.38195562     -718.62382927
  entropy T*S    EENTRO =        -0.00000000
  eigenvalues    EBANDS =      -158.66839586
  atomic energy  EATOM  =      1529.39674839
  Solvation  Ediel_sol  =         0.00000000
  ---------------------------------------------------
  free energy    TOTEN  =       -45.55224059 eV

  energy without entropy =      -45.55224059  energy(sigma->0) =      -45.55224059


--------------------------------------------------------------------------------------------------------




--------------------------------------- Iteration      1(   8)  ---------------------------------------


    POTLOK:  cpu time    0.0017: real time    0.0018
    SETDIJ:  cpu time    0.0012: real time    0.0012
    EDDIAG:  cpu time    0.1027: real time    0.1031
  RMM-DIIS:  cpu time    0.1853: real time    0.1860
    ORTHCH:  cpu time    0.0099: real time    0.0099
       DOS:  cpu time    0.0009: real time    0.0009
    CHARGE:  cpu time    0.0157: real time    0.0158
    MIXING:  cpu time    0.0002: real time    0.0002
    --------------------------------------------
      LOOP:  cpu time    0.3177: real time    0.3189

 eigenvalue-minimisations  :  2947
 total energy-change (2. order) : 0.9678127E-01  (-0.4247232E-01)
 number of electron      36.0000134 magnetization 
 augmentation part       -1.5368163 magnetization 

 Broyden mixing:
  rms(total) = 0.80385E-01    rms(broyden)= 0.80383E-01
  rms(prec ) = 0.88076E-01
  weight for this iteration     100.00

 eigenvalues of (default mixing * dielectric matrix)
  average eigenvalue GAMMA=   1.2336
  2.1412  0.8472  0.7125

 Free energy of the ion-electron system (eV)
  ---------------------------------------------------
  alpha Z        PSCENC =        68.88242450
  Ewald energy   TEWEN  =      2358.92330674
  -Hartree energ DENC   =     -3930.71010769
  -exchange      EXHF   =         0.00000000
  -V(xc)+E(xc)   XCENC  =       -57.29330699
  PAW double counting   =       893.44840609     -753.31947394
  entropy T*S    EENTRO =        -0.00000000
  eigenvalues    EBANDS =      -154.78345642
  atomic energy  EATOM  =      1529.39674839
  Solvation  Ediel_sol  =         0.00000000
  ---------------------------------------------------
  free energy    TOTEN  =       -45.45545932 eV

  energy without entropy =      -45.45545932  energy(sigma->0) =      -45.45545932


--------------------------------------------------------------------------------------------------------




--------------------------------------- Iteration      1(   9)  ---------------------------------------


    POTLOK:  cpu time    0.0017: real time    0.0019
    SETDIJ:  cpu time    0.0012: real time    0.0012
    EDDIAG:  cpu time    0.1024: real time    0.1027
  RMM-DIIS:  cpu time    0.1974: real time    0.1979
    ORTHCH:  cpu time    0.0099: real time    0.0099
       DOS:  cpu time    0.0009: real time    0.0009
    CHARGE:  cpu time    0.0157: real time    0.0158
    MIXING:  cpu time    0.0002: real time    0.0002
    --------------------------------------------
      LOOP:  cpu time    0.3295: real time    0.3304

 eigenvalue-minimisations  :  3097
 total energy-change (2. order) : 0.1169355E-01  (-0.6085306E-02)
 number of electron      36.0000134 magnetization 
 augmentation part       -1.5195395 magnetization 

 Broyden mixing:
  rms(total) = 0.31658E-01    rms(broyden)= 0.31657E-01
  rms(prec ) = 0.35446E-01
  weight for this iteration     100.00

 eigenvalues of (default mixing * dielectric matrix)
  average eigenvalue GAMMA=   1.3988
  2.1618  1.9040  0.7424  0.7870

 Free energy of the ion-electron system (eV)
  ---------------------------------------------------
  alpha Z        PSCENC =        68.88242450
  Ewald energy   TEWEN  =      2358.92330674
  -Hartree energ DENC   =     -3932.40085710
  -exchange      EXHF   =         0.00000000
  -V(xc)+E(xc)   XCENC  =       -57.10344263
  PAW double counting   =       912.30368226     -772.49637721
  entropy T*S    EENTRO =        -0.00000000
  eigenvalues    EBANDS =      -152.94925074
  atomic energy  EATOM  =      1529.39674839
  Solvation  Ediel_sol  =         0.00000000
  ---------------------------------------------------
  free energy    TOTEN  =       -45.44376578 eV

  energy without entropy =      -45.44376578  energy(sigma->0) =      -45.44376578


--------------------------------------------------------------------------------------------------------




--------------------------------------- Iteration      1(  10)  ---------------------------------------


    POTLOK:  cpu time    0.0017: real time    0.0018
    SETDIJ:  cpu time    0.0012: real time    0.0012
    EDDIAG:  cpu time    0.1039: real time    0.1042
  RMM-DIIS:  cpu time    0.2014: real time    0.2019
    ORTHCH:  cpu time    0.0100: real time    0.0101
       DOS:  cpu time    0.0009: real time    0.0009
    CHARGE:  cpu time    0.0158: real time    0.0159
    MIXING:  cpu time    0.0003: real time    0.0003
    --------------------------------------------
      LOOP:  cpu time    0.3354: real time    0.3363

 eigenvalue-minimisations  :  3043
 total energy-change (2. order) : 0.2520408E-02  (-0.2016057E-02)
 number of electron      36.0000133 magnetization 
 augmentation part       -1.5116038 magnetization 

 Broyden mixing:
  rms(total) = 0.11008E-01    rms(broyden)= 0.11008E-01
  rms(prec ) = 0.15426E-01
  weight for this iteration     100.00

 eigenvalues of (default mixing * dielectric matrix)
  average eigenvalue GAMMA=   1.3509
  2.3617  1.7238  0.7192  0.9748  0.9748

 Free energy of the ion-electron system (eV)
  ---------------------------------------------------
  alpha Z        PSCENC =        68.88242450
  Ewald energy   TEWEN  =      2358.92330674
  -Hartree energ DENC   =     -3933.51241043
  -exchange      EXHF   =         0.00000000
  -V(xc)+E(xc)   XCENC  =       -57.03776143
  PAW double counting   =       920.14293793     -780.42886027
  entropy T*S    EENTRO =        -0.00000000
  eigenvalues    EBANDS =      -151.80763080
  atomic energy  EATOM  =      1529.39674839
  Solvation  Ediel_sol  =         0.00000000
  ---------------------------------------------------
  free energy    TOTEN  =       -45.44124537 eV

  energy without entropy =      -45.44124537  energy(sigma->0) =      -45.44124537


--------------------------------------------------------------------------------------------------------




--------------------------------------- Iteration      1(  11)  ---------------------------------------


    POTLOK:  cpu time    0.0018: real time    0.0019
    SETDIJ:  cpu time    0.0013: real time    0.0013
    EDDIAG:  cpu time    0.1035: real time    0.1038
  RMM-DIIS:  cpu time    0.1961: real time    0.1968
    ORTHCH:  cpu time    0.0099: real time    0.0099
       DOS:  cpu time    0.0009: real time    0.0009
    CHARGE:  cpu time    0.0158: real time    0.0158
    MIXING:  cpu time    0.0002: real time    0.0002
    --------------------------------------------
      LOOP:  cpu time    0.3296: real time    0.3307

 eigenvalue-minimisations  :  3095
 total energy-change (2. order) : 0.8968486E-03  (-0.2624971E-03)
 number of electron      36.0000134 magnetization 
 augmentation part       -1.5167597 magnetization 

 Broyden mixing:
  rms(total) = 0.36847E-02    rms(broyden)= 0.36845E-02
  rms(prec ) = 0.63734E-02
  weight for this iteration     100.00

 eigenvalues of (default mixing * dielectric matrix)
  average eigenvalue GAMMA=   1.3764
  2.3810  1.7161  1.7161  0.7160  0.8647  0.8647

 Free energy of the ion-electron system (eV)
  ---------------------------------------------------
  alpha Z        PSCENC =        68.88242450
  Ewald energy   TEWEN  =      2358.92330674
  -Hartree energ DENC   =     -3934.13889062
  -exchange      EXHF   =         0.00000000
  -V(xc)+E(xc)   XCENC  =       -57.03418751
  PAW double counting   =       921.67260855     -781.96665934
  entropy T*S    EENTRO =        -0.00000000
  eigenvalues    EBANDS =      -151.17569923
  atomic energy  EATOM  =      1529.39674839
  Solvation  Ediel_sol  =         0.00000000
  ---------------------------------------------------
  free energy    TOTEN  =       -45.44034852 eV

  energy without entropy =      -45.44034852  energy(sigma->0) =      -45.44034852


--------------------------------------------------------------------------------------------------------




--------------------------------------- Iteration      1(  12)  ---------------------------------------


    POTLOK:  cpu time    0.0017: real time    0.0018
    SETDIJ:  cpu time    0.0012: real time    0.0012
    EDDIAG:  cpu time    0.1029: real time    0.1032
  RMM-DIIS:  cpu time    0.2008: real time    0.2012
    ORTHCH:  cpu time    0.0099: real time    0.0100
       DOS:  cpu time    0.0009: real time    0.0009
    CHARGE:  cpu time    0.0158: real time    0.0158
    MIXING:  cpu time    0.0003: real time    0.0003
    --------------------------------------------
      LOOP:  cpu time    0.3335: real time    0.3344

 eigenvalue-minimisations  :  3080
 total energy-change (2. order) : 0.1286454E-03  (-0.1133710E-03)
 number of electron      36.0000134 magnetization 
 augmentation part       -1.5190264 magnetization 

 Broyden mixing:
  rms(total) = 0.34012E-02    rms(broyden)= 0.34012E-02
  rms(prec ) = 0.52727E-02
  weight for this iteration     100.00

 eigenvalues of (default mixing * dielectric matrix)
  average eigenvalue GAMMA=   1.4440
  2.6463  2.3595  1.4550  0.7248  0.8889  1.0168  1.0168

 Free energy of the ion-electron system (eV)
  ---------------------------------------------------
  alpha Z        PSCENC =        68.88242450
  Ewald energy   TEWEN  =      2358.92330674
  -Hartree energ DENC   =     -3934.95926343
  -exchange      EXHF   =         0.00000000
  -V(xc)+E(xc)   XCENC  =       -57.02506884
  PAW double counting   =       922.13768703     -782.42969036
  entropy T*S    EENTRO =        -0.00000000
  eigenvalues    EBANDS =      -150.36636392
  atomic energy  EATOM  =      1529.39674839
  Solvation  Ediel_sol  =         0.00000000
  ---------------------------------------------------
  free energy    TOTEN  =       -45.44021987 eV

  energy without entropy =      -45.44021987  energy(sigma->0) =      -45.44021987


--------------------------------------------------------------------------------------------------------




--------------------------------------- Iteration      1(  13)  ---------------------------------------


    POTLOK:  cpu time    0.0017: real time    0.0018
    SETDIJ:  cpu time    0.0012: real time    0.0012
    EDDIAG:  cpu time    0.1029: real time    0.1032
  RMM-DIIS:  cpu time    0.1933: real time    0.1938
    ORTHCH:  cpu time    0.0099: real time    0.0099
       DOS:  cpu time    0.0009: real time    0.0009
    CHARGE:  cpu time    0.0158: real time    0.0158
    MIXING:  cpu time    0.0003: real time    0.0003
    --------------------------------------------
      LOOP:  cpu time    0.3261: real time    0.3270

 eigenvalue-minimisations  :  3037
 total energy-change (2. order) : 0.1275575E-03  (-0.4533186E-04)
 number of electron      36.0000134 magnetization 
 augmentation part       -1.5161839 magnetization 

 Broyden mixing:
  rms(total) = 0.16871E-02    rms(broyden)= 0.16871E-02
  rms(prec ) = 0.29701E-02
  weight for this iteration     100.00

 eigenvalues of (default mixing * dielectric matrix)
  average eigenvalue GAMMA=   1.5439
  3.0124  2.4433  1.6944  1.6944  0.7283  0.8192  0.9796  0.9796

 Free energy of the ion-electron system (eV)
  ---------------------------------------------------
  alpha Z        PSCENC =        68.88242450
  Ewald energy   TEWEN  =      2358.92330674
  -Hartree energ DENC   =     -3935.60974200
  -exchange      EXHF   =         0.00000000
  -V(xc)+E(xc)   XCENC  =       -57.01307193
  PAW double counting   =       922.14502530     -782.43365986
  entropy T*S    EENTRO =        -0.00000000
  eigenvalues    EBANDS =      -149.73112346
  atomic energy  EATOM  =      1529.39674839
  Solvation  Ediel_sol  =         0.00000000
  ---------------------------------------------------
  free energy    TOTEN  =       -45.44009232 eV

  energy without entropy =      -45.44009232  energy(sigma->0) =      -45.44009232


--------------------------------------------------------------------------------------------------------




--------------------------------------- Iteration      1(  14)  ---------------------------------------


    POTLOK:  cpu time    0.0017: real time    0.0018
    SETDIJ:  cpu time    0.0012: real time    0.0012
    EDDIAG:  cpu time    0.1028: real time    0.1030
  RMM-DIIS:  cpu time    0.1919: real time    0.1926
    ORTHCH:  cpu time    0.0099: real time    0.0099
       DOS:  cpu time    0.0009: real time    0.0009
    CHARGE:  cpu time    0.0158: real time    0.0158
    MIXING:  cpu time    0.0003: real time    0.0003
    --------------------------------------------
      LOOP:  cpu time    0.3245: real time    0.3256

 eigenvalue-minimisations  :  3009
 total energy-change (2. order) :-0.7112318E-04  (-0.1026374E-04)
 number of electron      36.0000134 magnetization 
 augmentation part       -1.5168230 magnetization 

 Broyden mixing:
  rms(total) = 0.95175E-03    rms(broyden)= 0.95174E-03
  rms(prec ) = 0.15815E-02
  weight for this iteration     100.00

 eigenvalues of (default mixing * dielectric matrix)
  average eigenvalue GAMMA=   1.6805
  4.0558  2.4907  2.4432  1.5022  1.1546  0.7272  0.8240  0.9634  0.9634

 Free energy of the ion-electron system (eV)
  ---------------------------------------------------
  alpha Z        PSCENC =        68.88242450
  Ewald energy   TEWEN  =      2358.92330674
  -Hartree energ DENC   =     -3936.16229128
  -exchange      EXHF   =         0.00000000
  -V(xc)+E(xc)   XCENC  =       -57.01186629
  PAW double counting   =       921.89784961     -782.18298859
  entropy T*S    EENTRO =        -0.00000000
  eigenvalues    EBANDS =      -149.18334652
  atomic energy  EATOM  =      1529.39674839
  Solvation  Ediel_sol  =         0.00000000
  ---------------------------------------------------
  free energy    TOTEN  =       -45.44016344 eV

  energy without entropy =      -45.44016344  energy(sigma->0) =      -45.44016344


--------------------------------------------------------------------------------------------------------




--------------------------------------- Iteration      1(  15)  ---------------------------------------


    POTLOK:  cpu time    0.0017: real time    0.0018
    SETDIJ:  cpu time    0.0012: real time    0.0012
    EDDIAG:  cpu time    0.1025: real time    0.1027
  RMM-DIIS:  cpu time    0.1889: real time    0.1894
    ORTHCH:  cpu time    0.0099: real time    0.0099
       DOS:  cpu time    0.0009: real time    0.0009
    CHARGE:  cpu time    0.0158: real time    0.0159
    MIXING:  cpu time    0.0004: real time    0.0004
    --------------------------------------------
      LOOP:  cpu time    0.3214: real time    0.3222

 eigenvalue-minimisations  :  2966
 total energy-change (2. order) :-0.1518488E-03  (-0.3942475E-05)
 number of electron      36.0000134 magnetization 
 augmentation part       -1.5171674 magnetization 

 Broyden mixing:
  rms(total) = 0.56007E-03    rms(broyden)= 0.56006E-03
  rms(prec ) = 0.78665E-03
  weight for this iteration     100.00

 eigenvalues of (default mixing * dielectric matrix)
  average eigenvalue GAMMA=   1.9757
  6.4706  2.8916  2.1091  2.1091  1.6918  0.7265  0.9640  0.9640  0.8296  1.0009

 Free energy of the ion-electron system (eV)
  ---------------------------------------------------
  alpha Z        PSCENC =        68.88242450
  Ewald energy   TEWEN  =      2358.92330674
  -Hartree energ DENC   =     -3936.52849153
  -exchange      EXHF   =         0.00000000
  -V(xc)+E(xc)   XCENC  =       -57.01050432
  PAW double counting   =       921.72089656     -782.00635835
  entropy T*S    EENTRO =        -0.00000000
  eigenvalues    EBANDS =      -148.81833728
  atomic energy  EATOM  =      1529.39674839
  Solvation  Ediel_sol  =         0.00000000
  ---------------------------------------------------
  free energy    TOTEN  =       -45.44031529 eV

  energy without entropy =      -45.44031529  energy(sigma->0) =      -45.44031529


--------------------------------------------------------------------------------------------------------




--------------------------------------- Iteration      1(  16)  ---------------------------------------


    POTLOK:  cpu time    0.0017: real time    0.0018
    SETDIJ:  cpu time    0.0012: real time    0.0013
    EDDIAG:  cpu time    0.1024: real time    0.1026
  RMM-DIIS:  cpu time    0.1935: real time    0.1940
    ORTHCH:  cpu time    0.0099: real time    0.0099
       DOS:  cpu time    0.0009: real time    0.0009
    CHARGE:  cpu time    0.0157: real time    0.0157
    MIXING:  cpu time    0.0004: real time    0.0004
    --------------------------------------------
      LOOP:  cpu time    0.3257: real time    0.3266

 eigenvalue-minimisations  :  3027
 total energy-change (2. order) :-0.1353785E-03  (-0.2006490E-05)
 number of electron      36.0000134 magnetization 
 augmentation part       -1.5165348 magnetization 

 Broyden mixing:
  rms(total) = 0.53526E-03    rms(broyden)= 0.53525E-03
  rms(prec ) = 0.62754E-03
  weight for this iteration     100.00

 eigenvalues of (default mixing * dielectric matrix)
  average eigenvalue GAMMA=   2.0362
  7.2680  3.0328  2.5841  2.2184  1.4129  1.4129  0.9689  0.9689  0.7262  0.8350
  0.9698

 Free energy of the ion-electron system (eV)
  ---------------------------------------------------
  alpha Z        PSCENC =        68.88242450
  Ewald energy   TEWEN  =      2358.92330674
  -Hartree energ DENC   =     -3936.67015461
  -exchange      EXHF   =         0.00000000
  -V(xc)+E(xc)   XCENC  =       -57.00954030
  PAW double counting   =       921.72604185     -782.01218325
  entropy T*S    EENTRO =        -0.00000000
  eigenvalues    EBANDS =      -148.67709401
  atomic energy  EATOM  =      1529.39674839
  Solvation  Ediel_sol  =         0.00000000
  ---------------------------------------------------
  free energy    TOTEN  =       -45.44045067 eV

  energy without entropy =      -45.44045067  energy(sigma->0) =      -45.44045067


--------------------------------------------------------------------------------------------------------




--------------------------------------- Iteration      1(  17)  ---------------------------------------


    POTLOK:  cpu time    0.0017: real time    0.0018
    SETDIJ:  cpu time    0.0012: real time    0.0012
    EDDIAG:  cpu time    0.1022: real time    0.1025
  RMM-DIIS:  cpu time    0.1928: real time    0.1935
    ORTHCH:  cpu time    0.0099: real time    0.0099
       DOS:  cpu time    0.0009: real time    0.0009
    CHARGE:  cpu time    0.0157: real time    0.0158
    MIXING:  cpu time    0.0004: real time    0.0004
    --------------------------------------------
      LOOP:  cpu time    0.3249: real time    0.3260

 eigenvalue-minimisations  :  2982
 total energy-change (2. order) :-0.3695188E-04  (-0.1416233E-05)
 number of electron      36.0000134 magnetization 
 augmentation part       -1.5171191 magnetization 

 Broyden mixing:
  rms(total) = 0.38315E-03    rms(broyden)= 0.38315E-03
  rms(prec ) = 0.46051E-03
  weight for this iteration     100.00

 eigenvalues of (default mixing * dielectric matrix)
  average eigenvalue GAMMA=   2.1352
  8.0204  3.6646  2.7060  2.1053  2.1053  1.4739  1.1366  0.7261  0.9594  0.9594
  0.8423  0.9234

 Free energy of the ion-electron system (eV)
  ---------------------------------------------------
  alpha Z        PSCENC =        68.88242450
  Ewald energy   TEWEN  =      2358.92330674
  -Hartree energ DENC   =     -3936.66916356
  -exchange      EXHF   =         0.00000000
  -V(xc)+E(xc)   XCENC  =       -57.01086029
  PAW double counting   =       921.82429509     -782.11091845
  entropy T*S    EENTRO =        -0.00000000
  eigenvalues    EBANDS =      -148.67632005
  atomic energy  EATOM  =      1529.39674839
  Solvation  Ediel_sol  =         0.00000000
  ---------------------------------------------------
  free energy    TOTEN  =       -45.44048762 eV

  energy without entropy =      -45.44048762  energy(sigma->0) =      -45.44048762


--------------------------------------------------------------------------------------------------------




--------------------------------------- Iteration      1(  18)  ---------------------------------------


    POTLOK:  cpu time    0.0017: real time    0.0019
    SETDIJ:  cpu time    0.0012: real time    0.0012
    EDDIAG:  cpu time    0.1028: real time    0.1030
  RMM-DIIS:  cpu time    0.1403: real time    0.1406
    ORTHCH:  cpu time    0.0099: real time    0.0099
       DOS:  cpu time    0.0009: real time    0.0009
    CHARGE:  cpu time    0.0157: real time    0.0158
    MIXING:  cpu time    0.0004: real time    0.0004
    --------------------------------------------
      LOOP:  cpu time    0.2729: real time    0.2737

 eigenvalue-minimisations  :  1937
 total energy-change (2. order) :-0.1139615E-04  (-0.1962629E-06)
 number of electron      36.0000134 magnetization 
 augmentation part       -1.5169008 magnetization 

 Broyden mixing:
  rms(total) = 0.11647E-03    rms(broyden)= 0.11647E-03
  rms(prec ) = 0.13072E-03
  weight for this iteration     100.00

 eigenvalues of (default mixing * dielectric matrix)
  average eigenvalue GAMMA=   2.0807
  8.0616  3.8828  2.6588  2.3147  2.0664  1.4846  0.7261  0.8386  0.9764  1.0539
  1.0539  0.9657  0.9657

 Free energy of the ion-electron system (eV)
  ---------------------------------------------------
  alpha Z        PSCENC =        68.88242450
  Ewald energy   TEWEN  =      2358.92330674
  -Hartree energ DENC   =     -3936.66450449
  -exchange      EXHF   =         0.00000000
  -V(xc)+E(xc)   XCENC  =       -57.01047664
  PAW double counting   =       921.80945096     -782.09608272
  entropy T*S    EENTRO =        -0.00000000
  eigenvalues    EBANDS =      -148.68136576
  atomic energy  EATOM  =      1529.39674839
  Solvation  Ediel_sol  =         0.00000000
  ---------------------------------------------------
  free energy    TOTEN  =       -45.44049902 eV

  energy without entropy =      -45.44049902  energy(sigma->0) =      -45.44049902


--------------------------------------------------------------------------------------------------------




--------------------------------------- Iteration      1(  19)  ---------------------------------------


    POTLOK:  cpu time    0.0017: real time    0.0018
    SETDIJ:  cpu time    0.0012: real time    0.0013
    EDDIAG:  cpu time    0.1025: real time    0.1027
  RMM-DIIS:  cpu time    0.1313: real time    0.1316
    ORTHCH:  cpu time    0.0099: real time    0.0099
       DOS:  cpu time    0.0009: real time    0.0009
    CHARGE:  cpu time    0.0157: real time    0.0157
    MIXING:  cpu time    0.0005: real time    0.0005
    --------------------------------------------
      LOOP:  cpu time    0.2637: real time    0.2645

 eigenvalue-minimisations  :  1755
 total energy-change (2. order) :-0.1150071E-05  (-0.4637060E-07)
 number of electron      36.0000134 magnetization 
 augmentation part       -1.5168876 magnetization 

 Broyden mixing:
  rms(total) = 0.33766E-04    rms(broyden)= 0.33764E-04
  rms(prec ) = 0.38373E-04
  weight for this iteration     100.00

 eigenvalues of (default mixing * dielectric matrix)
  average eigenvalue GAMMA=   2.0847
  8.1002  4.0014  2.7672  2.4508  1.9234  1.9234  1.3178  1.3178  0.7261  0.9617
  0.9617  0.8393  0.9476  0.9476

 Free energy of the ion-electron system (eV)
  ---------------------------------------------------
  alpha Z        PSCENC =        68.88242450
  Ewald energy   TEWEN  =      2358.92330674
  -Hartree energ DENC   =     -3936.66734757
  -exchange      EXHF   =         0.00000000
  -V(xc)+E(xc)   XCENC  =       -57.01048810
  PAW double counting   =       921.79778706     -782.08413966
  entropy T*S    EENTRO =        -0.00000000
  eigenvalues    EBANDS =      -148.67879153
  atomic energy  EATOM  =      1529.39674839
  Solvation  Ediel_sol  =         0.00000000
  ---------------------------------------------------
  free energy    TOTEN  =       -45.44050017 eV

  energy without entropy =      -45.44050017  energy(sigma->0) =      -45.44050017


--------------------------------------------------------------------------------------------------------




--------------------------------------- Iteration      1(  20)  ---------------------------------------


    POTLOK:  cpu time    0.0017: real time    0.0018
    SETDIJ:  cpu time    0.0012: real time    0.0013
    EDDIAG:  cpu time    0.1023: real time    0.1025
  RMM-DIIS:  cpu time    0.1258: real time    0.1261
    ORTHCH:  cpu time    0.0099: real time    0.0099
       DOS:  cpu time    0.0009: real time    0.0009
    --------------------------------------------
      LOOP:  cpu time    0.2418: real time    0.2426

 eigenvalue-minimisations  :  1498
 total energy-change (2. order) :-0.4270626E-06  (-0.1987957E-07)
 number of electron      36.0000134 magnetization 
 augmentation part       -1.5168876 magnetization 

 Free energy of the ion-electron system (eV)
  ---------------------------------------------------
  alpha Z        PSCENC =        68.88242450
  Ewald energy   TEWEN  =      2358.92330674
  -Hartree energ DENC   =     -3936.66787418
  -exchange      EXHF   =         0.00000000
  -V(xc)+E(xc)   XCENC  =       -57.01045898
  PAW double counting   =       921.79565602     -782.08198461
  entropy T*S    EENTRO =        -0.00000000
  eigenvalues    EBANDS =      -148.67831847
  atomic energy  EATOM  =      1529.39674839
  Solvation  Ediel_sol  =         0.00000000
  ---------------------------------------------------
  free energy    TOTEN  =       -45.44050059 eV

  energy without entropy =      -45.44050059  energy(sigma->0) =      -45.44050059


--------------------------------------------------------------------------------------------------------




 average (electrostatic) potential at core
  the test charge radii are     0.9698  1.2296  1.1823
  (the norm of the test charge is              1.0000)
       1 -90.3289       2 -90.3577       3 -90.3520       4 -90.3381       5 -42.5118
       6 -44.6610
 
 
 
 E-fermi :   1.8934     XC(G=0):  -7.0955     alpha+bet : -7.2385


 k-point     1 :       0.0000    0.0000    0.0000
  band No.  band energies     occupation 
      1     -13.5676      2.00000
      2     -13.0543      2.00000
      3     -12.1149      2.00000
      4     -11.8434      2.00000
      5      -5.3202      2.00000
      6      -4.4993      2.00000
      7      -1.6528      2.00000
      8      -1.6283      2.00000
      9      -1.5509      2.00000
     10      -1.5279      2.00000
     11      -1.4820      2.00000
     12      -0.5145      2.00000
     13      -0.4860      2.00000
     14      -0.4088      2.00000
     15      -0.3757      2.00000
     16      -0.3639      2.00000
     17       0.7509      2.00000
     18       1.4505      2.00000
     19       3.6246      0.00000
     20       3.7260      0.00000
     21       3.8472      0.00000
     22       3.8909      0.00000
     23       4.0335      0.00000
     24       4.0638      0.00000

 k-point     2 :       0.0909    0.0000    0.0000
  band No.  band energies     occupation 
      1     -13.4385      2.00000
      2     -12.9390      2.00000
      3     -12.0549      2.00000
      4     -11.7900      2.00000
      5      -5.1646      2.00000
      6      -4.3609      2.00000
      7      -1.9965      2.00000
      8      -1.8069      2.00000
      9      -1.7464      2.00000
     10      -1.5052      2.00000
     11      -1.4250      2.00000
     12      -1.0964      2.00000
     13      -0.6702      2.00000
     14      -0.6007      2.00000
     15      -0.3525      2.00000
     16       0.0026      2.00000
     17       0.7215      2.00000
     18       1.2643      2.00000
     19       3.5642      0.00000
     20       3.6080      0.00000
     21       3.7282      0.00000
     22       3.8032      0.00000
     23       3.8763      0.00000
     24       3.9488      0.00000

 k-point     3 :       0.1818    0.0000    0.0000
  band No.  band energies     occupation 
      1     -13.0729      2.00000
      2     -12.6128      2.00000
      3     -11.8860      2.00000
      4     -11.6401      2.00000
      5      -4.7574      2.00000
      6      -4.0255      2.00000
      7      -2.7782      2.00000
      8      -2.4223      2.00000
      9      -2.2873      2.00000
     10      -1.8586      2.00000
     11      -1.1927      2.00000
     12      -1.0974      2.00000
     13      -1.0936      2.00000
     14      -1.0270      2.00000
     15      -0.4408      2.00000
     16      -0.0231      2.00000
     17       0.5090      2.00000
     18       0.7157      2.00000
     19       3.0978      0.00000
     20       3.4383      0.00000
     21       3.4486      0.00000
     22       3.6389      0.00000
     23       3.7439      0.00000
     24       4.2502      0.00000

 k-point     4 :       0.2727    0.0000    0.0000
  band No.  band energies     occupation 
      1     -12.5394      2.00000
      2     -12.1393      2.00000
      3     -11.6433      2.00000
      4     -11.4270      2.00000
      5      -4.4129      2.00000
      6      -3.9200      2.00000
      7      -3.4423      2.00000
      8      -3.0151      2.00000
      9      -2.7952      2.00000
     10      -2.6063      2.00000
     11      -1.6271      2.00000
     12      -1.5124      2.00000
     13      -0.7507      2.00000
     14      -0.7051      2.00000
     15      -0.6104      2.00000
     16      -0.3855      2.00000
     17       0.0541      2.00000
     18       0.1685      2.00000
     19       3.0135      0.00000
     20       3.1830      0.00000
     21       3.5212      0.00000
     22       3.5972      0.00000
     23       3.9791      0.00000
     24       4.5716      0.00000

 k-point     5 :       0.3636    0.0000    0.0000
  band No.  band energies     occupation 
      1     -11.9679      2.00000
      2     -11.6398      2.00000
      3     -11.3921      2.00000
      4     -11.2109      2.00000
      5      -4.7980      2.00000
      6      -4.3384      2.00000
      7      -3.6869      2.00000
      8      -3.4676      2.00000
      9      -3.2204      2.00000
     10      -2.8236      2.00000
     11      -2.0022      2.00000
     12      -1.8723      2.00000
     13      -1.0136      2.00000
     14      -0.7392      2.00000
     15      -0.3403      2.00000
     16      -0.1905      2.00000
     17      -0.1120      2.00000
     18       0.0463      2.00000
     19       3.0888      0.00000
     20       3.2805      0.00000
     21       3.6853      0.00000
     22       3.8271      0.00000
     23       4.4348      0.00000
     24       5.0049      0.00000

 k-point     6 :       0.4545   -0.0000    0.0000
  band No.  band energies     occupation 
      1     -11.5696      2.00000
      2     -11.3023      2.00000
      3     -11.2243      2.00000
      4     -11.0722      2.00000
      5      -5.2453      2.00000
      6      -4.6986      2.00000
      7      -4.0248      2.00000
      8      -3.7934      2.00000
      9      -3.3179      2.00000
     10      -2.9250      2.00000
     11      -2.2023      2.00000
     12      -2.0644      2.00000
     13      -1.1093      2.00000
     14      -0.9260      2.00000
     15      -0.1567      2.00000
     16       0.0402      2.00000
     17       0.1155      2.00000
     18       0.2526      2.00000
     19       3.1216      0.00000
     20       3.5757      0.00000
     21       3.8912      0.00000
     22       4.2584      0.00000
     23       4.6855      0.00000
     24       5.0790      0.00000

 k-point     7 :       0.0000    0.0909    0.0000
  band No.  band energies     occupation 
      1     -13.4385      2.00000
      2     -12.9395      2.00000
      3     -12.0547      2.00000
      4     -11.7893      2.00000
      5      -5.1647      2.00000
      6      -4.3618      2.00000
      7      -1.9965      2.00000
      8      -1.8193      2.00000
      9      -1.7414      2.00000
     10      -1.5051      2.00000
     11      -1.4086      2.00000
     12      -1.0707      2.00000
     13      -0.6875      2.00000
     14      -0.6503      2.00000
     15      -0.3335      2.00000
     16       0.0126      2.00000
     17       0.7245      2.00000
     18       1.2669      2.00000
     19       3.5121      0.00000
     20       3.5954      0.00000
     21       3.7033      0.00000
     22       3.7900      0.00000
     23       3.9091      0.00000
     24       3.9653      0.00000

 k-point     8 :       0.0909    0.0909    0.0000
  band No.  band energies     occupation 
      1     -13.1915      2.00000
      2     -12.7186      2.00000
      3     -11.9394      2.00000
      4     -11.6873      2.00000
      5      -4.8790      2.00000
      6      -4.1184      2.00000
      7      -2.5504      2.00000
      8      -2.2369      2.00000
      9      -2.0907      2.00000
     10      -1.5616      2.00000
     11      -1.2928      2.00000
     12      -1.2057      2.00000
     13      -1.1683      2.00000
     14      -1.0715      2.00000
     15      -0.2342      2.00000
     16       0.1224      2.00000
     17       0.6066      2.00000
     18       0.9028      2.00000
     19       3.1857      0.00000
     20       3.3904      0.00000
     21       3.5108      0.00000
     22       3.5712      0.00000
     23       3.7789      0.00000
     24       3.9517      0.00000

 k-point     9 :       0.1818    0.0909    0.0000
  band No.  band energies     occupation 
      1     -12.7403      2.00000
      2     -12.3171      2.00000
      3     -11.7313      2.00000
      4     -11.5039      2.00000
      5      -4.4467      2.00000
      6      -3.8305      2.00000
      7      -3.2661      2.00000
      8      -2.7685      2.00000
      9      -2.5623      2.00000
     10      -2.2602      2.00000
     11      -1.8053      2.00000
     12      -1.6478      2.00000
     13      -0.9873      2.00000
     14      -0.8857      2.00000
     15      -0.3177      2.00000
     16      -0.0432      2.00000
     17       0.2625      2.00000
     18       0.3908      2.00000
     19       2.8481      0.00000
     20       3.2496      0.00000
     21       3.3435      0.00000
     22       3.5686      0.00000
     23       3.7589      0.00000
     24       4.1370      0.00000

 k-point    10 :       0.2727    0.0909    0.0000
  band No.  band energies     occupation 
      1     -12.1805      2.00000
      2     -11.8246      2.00000
      3     -11.4791      2.00000
      4     -11.2843      2.00000
      5      -4.4627      2.00000
      6      -4.0722      2.00000
      7      -3.5017      2.00000
      8      -3.2861      2.00000
      9      -3.0346      2.00000
     10      -2.7831      2.00000
     11      -2.1446      2.00000
     12      -1.9570      2.00000
     13      -0.9158      2.00000
     14      -0.7622      2.00000
     15      -0.6249      2.00000
     16      -0.4470      2.00000
     17       0.1043      2.00000
     18       0.1952      2.00000
     19       2.8661      0.00000
     20       3.2737      0.00000
     21       3.4217      0.00000
     22       3.8904      0.00000
     23       4.0255      0.00000
     24       4.6229      0.00000

 k-point    11 :       0.3636    0.0909    0.0000
  band No.  band energies     occupation 
      1     -11.6790      2.00000
      2     -11.3941      2.00000
      3     -11.2620      2.00000
      4     -11.0996      2.00000
      5      -4.9607      2.00000
      6      -4.4608      2.00000
      7      -3.9109      2.00000
      8      -3.7116      2.00000
      9      -3.2643      2.00000
     10      -2.8523      2.00000
     11      -2.2537      2.00000
     12      -2.0954      2.00000
     13      -1.0006      2.00000
     14      -0.8805      2.00000
     15      -0.7747      2.00000
[...]
     13      -1.2949      2.00000
     14      -1.1447      2.00000
     15      -0.3197      2.00000
     16      -0.1879      2.00000
     17       0.1145      2.00000
     18       0.2322      2.00000
     19       2.7711      0.00000
     20       3.2250      0.00000
     21       3.4208      0.00000
     22       3.7046      0.00000
     23       4.0040      0.00000
     24       4.3276      0.00000

 k-point    50 :      -0.0909    0.3636    0.0000
  band No.  band energies     occupation 
      1     -12.2476      2.00000
      2     -11.9248      2.00000
      3     -11.5100      2.00000
      4     -11.3287      2.00000
      5      -4.5443      2.00000
      6      -4.1955      2.00000
      7      -3.5162      2.00000
      8      -3.3218      2.00000
      9      -3.1143      2.00000
     10      -2.8681      2.00000
     11      -2.2205      2.00000
     12      -2.0658      2.00000
     13      -0.9790      2.00000
     14      -0.8399      2.00000
     15      -0.6052      2.00000
     16      -0.4056      2.00000
     17       0.0688      2.00000
     18       0.1491      2.00000
     19       2.9205      0.00000
     20       3.2977      0.00000
     21       3.4576      0.00000
     22       3.8996      0.00000
     23       4.0712      0.00000
     24       4.6199      0.00000

 k-point    51 :       0.0000    0.4545    0.0000
  band No.  band energies     occupation 
      1     -11.6362      2.00000
      2     -11.4068      2.00000
      3     -11.2769      2.00000
      4     -11.1211      2.00000
      5      -5.3103      2.00000
      6      -4.7792      2.00000
      7      -4.0312      2.00000
      8      -3.8320      2.00000
      9      -3.3676      2.00000
     10      -3.0230      2.00000
     11      -2.2895      2.00000
     12      -2.2150      2.00000
     13      -1.0542      2.00000
     14      -0.8758      2.00000
     15      -0.2157      2.00000
     16      -0.0649      2.00000
     17       0.1034      2.00000
     18       0.2504      2.00000
     19       3.0978      0.00000
     20       3.5801      0.00000
     21       3.8674      0.00000
     22       4.2784      0.00000
     23       4.7267      0.00000
     24       5.1568      0.00000

 k-point    52 :       0.0909    0.4545    0.0000
  band No.  band energies     occupation 
      1     -11.5335      2.00000
      2     -11.3220      2.00000
      3     -11.2302      2.00000
      4     -11.0771      2.00000
      5      -5.2488      2.00000
      6      -4.7097      2.00000
      7      -4.1434      2.00000
      8      -3.9761      2.00000
      9      -3.3583      2.00000
     10      -3.0256      2.00000
     11      -2.3416      2.00000
     12      -2.2454      2.00000
     13      -1.0716      2.00000
     14      -0.8776      2.00000
     15      -0.8317      2.00000
     16      -0.6110      2.00000
     17       0.4185      2.00000
     18       0.5194      2.00000
     19       3.1259      0.00000
     20       3.6745      0.00000
     21       3.8442      0.00000
     22       4.4223      0.00000
     23       4.7838      0.00000
     24       4.9654      0.00000

 k-point    53 :       0.1818    0.4545    0.0000
  band No.  band energies     occupation 
      1     -11.4699      2.00000
      2     -11.2696      2.00000
      3     -11.1847      2.00000
      4     -11.0326      2.00000
      5      -4.8678      2.00000
      6      -4.3742      2.00000
      7      -4.2884      2.00000
      8      -4.1367      2.00000
      9      -3.2509      2.00000
     10      -2.9409      2.00000
     11      -2.3944      2.00000
     12      -2.1749      2.00000
     13      -1.8657      2.00000
     14      -1.5852      2.00000
     15      -1.0600      2.00000
     16      -0.8307      2.00000
     17       0.5427      2.00000
     18       0.6683      2.00000
     19       3.0114      0.00000
     20       3.5602      0.00000
     21       3.8615      0.00000
     22       4.1842      0.00000
     23       4.5808      0.00000
     24       4.8853      0.00000

 k-point    54 :       0.2727    0.4545    0.0000
  band No.  band energies     occupation 
      1     -11.4503      2.00000
      2     -11.2534      2.00000
      3     -11.1649      2.00000
      4     -11.0131      2.00000
      5      -4.5650      2.00000
      6      -4.3804      2.00000
      7      -4.2029      2.00000
      8      -4.1092      2.00000
      9      -3.0522      2.00000
     10      -2.7932      2.00000
     11      -2.5826      2.00000
     12      -2.3877      2.00000
     13      -2.2647      2.00000
     14      -2.0591      2.00000
     15      -1.0327      2.00000
     16      -0.8332      2.00000
     17       0.5719      2.00000
     18       0.7112      2.00000
     19       2.9171      0.00000
     20       3.3829      0.00000
     21       3.8857      0.00000
     22       3.9854      0.00000
     23       4.5890      0.00000
     24       4.7006      0.00000

 k-point    55 :       0.3636    0.4545    0.0000
  band No.  band energies     occupation 
      1     -11.4713      2.00000
      2     -11.2705      2.00000
      3     -11.1835      2.00000
      4     -11.0316      2.00000
      5      -4.8673      2.00000
      6      -4.3744      2.00000
      7      -4.2863      2.00000
      8      -4.1353      2.00000
      9      -3.2665      2.00000
     10      -2.9322      2.00000
     11      -2.3949      2.00000
     12      -2.1761      2.00000
     13      -1.8630      2.00000
     14      -1.5854      2.00000
     15      -1.0353      2.00000
     16      -0.8515      2.00000
     17       0.5451      2.00000
     18       0.6652      2.00000
     19       3.0117      0.00000
     20       3.5598      0.00000
     21       3.8624      0.00000
     22       4.1836      0.00000
     23       4.5789      0.00000
     24       4.8812      0.00000

 k-point    56 :       0.4545    0.4545    0.0000
  band No.  band energies     occupation 
      1     -11.5357      2.00000
      2     -11.3232      2.00000
      3     -11.2286      2.00000
      4     -11.0754      2.00000
      5      -5.2481      2.00000
      6      -4.7087      2.00000
      7      -4.1401      2.00000
      8      -3.9781      2.00000
      9      -3.3710      2.00000
     10      -3.0197      2.00000
     11      -2.3429      2.00000
     12      -2.2465      2.00000
     13      -1.0354      2.00000
     14      -0.8945      2.00000
     15      -0.8395      2.00000
     16      -0.6135      2.00000
     17       0.4262      2.00000
     18       0.5106      2.00000
     19       3.1266      0.00000
     20       3.6726      0.00000
     21       3.8456      0.00000
     22       4.4198      0.00000
     23       4.7842      0.00000
     24       4.9738      0.00000

 k-point    57 :      -0.4545    0.4545    0.0000
  band No.  band energies     occupation 
      1     -11.6383      2.00000
      2     -11.4075      2.00000
      3     -11.2760      2.00000
      4     -11.1194      2.00000
      5      -5.3094      2.00000
      6      -4.7784      2.00000
      7      -4.0263      2.00000
      8      -3.8364      2.00000
      9      -3.3785      2.00000
     10      -3.0184      2.00000
     11      -2.2905      2.00000
     12      -2.2149      2.00000
     13      -1.0240      2.00000
     14      -0.8967      2.00000
     15      -0.2162      2.00000
     16      -0.0645      2.00000
     17       0.1103      2.00000
     18       0.2417      2.00000
     19       3.0978      0.00000
     20       3.5782      0.00000
     21       3.8678      0.00000
     22       4.2789      0.00000
     23       4.7369      0.00000
     24       5.1564      0.00000

 k-point    58 :      -0.3636    0.4545    0.0000
  band No.  band energies     occupation 
      1     -11.7467      2.00000
      2     -11.4978      2.00000
      3     -11.3091      2.00000
      4     -11.1475      2.00000
      5      -5.0299      2.00000
      6      -4.5525      2.00000
      7      -3.9280      2.00000
      8      -3.7696      2.00000
      9      -3.3237      2.00000
     10      -2.9390      2.00000
     11      -2.3302      2.00000
     12      -2.2049      2.00000
     13      -0.9527      2.00000
     14      -0.8870      2.00000
     15      -0.7600      2.00000
     16      -0.6886      2.00000
     17       0.2655      2.00000
     18       0.3320      2.00000
     19       3.1037      0.00000
     20       3.4733      0.00000
     21       3.7448      0.00000
     22       4.1632      0.00000
     23       4.5082      0.00000
     24       5.0708      0.00000

 k-point    59 :      -0.2727    0.4545    0.0000
  band No.  band energies     occupation 
      1     -11.8157      2.00000
      2     -11.5563      2.00000
      3     -11.3243      2.00000
      4     -11.1591      2.00000
      5      -4.6364      2.00000
      6      -4.2575      2.00000
      7      -3.8479      2.00000
      8      -3.7041      2.00000
      9      -3.2194      2.00000
     10      -2.8190      2.00000
     11      -2.5100      2.00000
     12      -2.2125      2.00000
     13      -1.7325      2.00000
     14      -1.5021      2.00000
     15      -0.6723      2.00000
     16      -0.5447      2.00000
     17       0.2666      2.00000
     18       0.3632      2.00000
     19       3.0186      0.00000
     20       3.4586      0.00000
     21       3.5750      0.00000
     22       4.0057      0.00000
     23       4.1916      0.00000
     24       4.6497      0.00000

 k-point    60 :      -0.1818    0.4545    0.0000
  band No.  band energies     occupation 
      1     -11.8153      2.00000
      2     -11.5562      2.00000
      3     -11.3243      2.00000
      4     -11.1596      2.00000
      5      -4.6367      2.00000
      6      -4.2586      2.00000
      7      -3.8477      2.00000
      8      -3.7055      2.00000
      9      -3.2093      2.00000
     10      -2.8247      2.00000
     11      -2.5094      2.00000
     12      -2.2149      2.00000
     13      -1.7328      2.00000
     14      -1.5017      2.00000
     15      -0.6871      2.00000
     16      -0.5311      2.00000
     17       0.2665      2.00000
     18       0.3640      2.00000
     19       3.0187      0.00000
     20       3.4589      0.00000
     21       3.5755      0.00000
     22       4.0067      0.00000
     23       4.1907      0.00000
     24       4.6489      0.00000

 k-point    61 :      -0.0909    0.4545    0.0000
  band No.  band energies     occupation 
      1     -11.7453      2.00000
      2     -11.4976      2.00000
      3     -11.3093      2.00000
      4     -11.1488      2.00000
      5      -5.0306      2.00000
      6      -4.5535      2.00000
      7      -3.9311      2.00000
      8      -3.7677      2.00000
      9      -3.3116      2.00000
     10      -2.9449      2.00000
     11      -2.3279      2.00000
     12      -2.2057      2.00000
     13      -0.9803      2.00000
     14      -0.8951      2.00000
     15      -0.7446      2.00000
     16      -0.6759      2.00000
     17       0.2614      2.00000
     18       0.3381      2.00000
     19       3.1030      0.00000
     20       3.4748      0.00000
     21       3.7443      0.00000
     22       4.1644      0.00000
     23       4.5051      0.00000
     24       5.0689      0.00000


--------------------------------------------------------------------------------------------------------


 soft charge-density along one line, spin component           1
         0         1         2         3         4         5         6         7         8         9
 total charge-density along one line
 
 pseudopotential strength for first ion, spin component:           1
 40.743   0.009  -0.000  -0.045   0.000   0.000  -0.000  -0.000
  0.009   0.009   0.000   0.000  -0.000  -0.000  -0.000   0.000
 -0.000   0.000   8.454   0.000   0.000   0.000  -0.000  -0.000
 -0.045   0.000   0.000   8.452  -0.000  -0.000   0.000   0.000
  0.000  -0.000   0.000  -0.000   8.454  -0.000   0.000   0.000
  0.000  -0.000   0.000  -0.000  -0.000   0.027   0.000   0.000
 -0.000  -0.000  -0.000   0.000   0.000   0.000   0.027  -0.000
 -0.000   0.000  -0.000   0.000   0.000   0.000  -0.000   0.027
 total augmentation occupancy for first ion, spin component:           1
  1.900  -0.470   0.000   0.213  -0.000  -0.000   0.136   0.000
 -0.470   1.733  -0.000   1.159   0.000  -0.000  -0.501  -0.000
  0.000  -0.000   1.408  -0.000   0.000  -0.469   0.000  -0.000
  0.213   1.159  -0.000   1.526   0.000   0.000  -0.490  -0.000
 -0.000   0.000   0.000   0.000   1.408  -0.000  -0.000  -0.469
 -0.000  -0.000  -0.469   0.000  -0.000   0.234  -0.000  -0.000
  0.136  -0.501   0.000  -0.490  -0.000  -0.000   0.265   0.000
  0.000  -0.000  -0.000  -0.000  -0.469  -0.000   0.000   0.234


------------------------ aborting loop because EDIFF is reached ----------------------------------------


    CHARGE:  cpu time    0.0158: real time    0.0159
    FORLOC:  cpu time    0.0002: real time    0.0002
    FORNL :  cpu time    0.0956: real time    0.0959
    STRESS:  cpu time    0.3052: real time    0.3063
    FORCOR:  cpu time    0.0017: real time    0.0017
    FORHAR:  cpu time    0.0005: real time    0.0005
    MIXING:  cpu time    0.0002: real time    0.0002
    OFIELD:  cpu time    0.0000: real time    0.0000

  Number of pair interactions contributing to vdW energy:   62928
  Edisp (eV):   -1.69218
    FORVDW:  cpu time    0.0049: real time    0.0049

  FORCE on cell =-STRESS in cart. coord.  units (eV):
  Direction    XX          YY          ZZ          XY          YZ          ZX
  --------------------------------------------------------------------------------------
  Alpha Z    68.88242    68.88242    68.88242
  Ewald    3494.87546  3495.09203 -4631.91437     0.21520    -0.10750     0.10514
  Hartree  3860.13458  3860.25476 -3786.41310     0.08700    -0.04020     0.04140
  E(xc)    -139.74044  -139.73871  -140.83000    -0.00017    -0.00058     0.00092
  Local   -7965.24706 -7965.58633  7797.39461    -0.29609     0.13636    -0.13476
  n-local   258.76616   258.75779   268.81417     0.00255     0.00395    -0.00585
  augment   -54.96984   -54.96089   -56.95311     0.00458    -0.00046     0.00082
  Kinetic   477.32713   477.33700   482.05525    -0.00346    -0.01194     0.01119
  Fock        0.00000     0.00000     0.00000     0.00000     0.00000     0.00000
  vdW        -0.11140    -0.10867    -1.16375     0.00166    -0.00337     0.00371
  -------------------------------------------------------------------------------------
  Total      -0.08298    -0.07059    -0.12788     0.01128    -0.02374     0.02259
  in kB      -0.75599    -0.64312    -1.16499     0.10275    -0.21631     0.20578
  external pressure =       -0.85 kB  Pullay stress =        0.00 kB


 VOLUME and BASIS-vectors are now :
 -----------------------------------------------------------------------------
  energy-cutoff  :      400.00
  volume of cell :      175.87
      direct lattice vectors                 reciprocal lattice vectors
     3.186500000  0.000000000  0.000000000     0.313823945  0.181186339  0.000000000
    -1.593250000  2.759589949  0.000000000     0.000000000  0.362372678  0.000000000
     0.000000000  0.000000000 20.000000000     0.000000000  0.000000000  0.050000000

  length of vectors
     3.186500000  3.186500000 20.000000000     0.362372678  0.362372678  0.050000000


 FORCES acting on ions
    electron-ion (+dipol)            ewald-force                    non-local-force                 convergence-correction
 -----------------------------------------------------------------------------------------------
   -.105E-01 0.493E-02 -.789E+03   0.100E-01 -.484E-02 0.793E+03   0.328E-02 -.151E-02 -.460E+01   0.136E-03 -.120E-03 0.485E-02
   -.445E-01 0.383E-01 -.626E+02   0.456E-01 -.395E-01 0.579E+02   0.306E-02 -.235E-02 0.463E+01   0.141E-03 -.121E-03 0.255E-02
   0.480E-01 -.242E-01 0.620E+02   -.489E-01 0.257E-01 -.573E+02   -.553E-02 -.229E-02 -.474E+01   -.154E-03 0.875E-04 -.306E-02
   0.111E-01 0.361E-02 0.789E+03   -.108E-01 -.331E-02 -.794E+03   -.376E-02 -.162E-02 0.468E+01   -.192E-03 0.102E-03 -.287E-02
   -.229E-01 -.951E-02 0.426E+03   0.240E-01 0.112E-01 -.426E+03   0.462E-02 0.446E-02 -.127E-01   0.614E-05 0.110E-03 -.310E-02
   0.196E-01 -.108E-01 -.426E+03   -.199E-01 0.108E-01 0.426E+03   -.409E-02 0.177E-02 0.305E-01   -.425E-05 -.118E-04 0.563E-02
 -----------------------------------------------------------------------------------------------
   0.714E-03 0.222E-02 0.636E-02   0.155E-14 0.775E-14 -.114E-12   -.242E-02 -.154E-02 -.137E-01   -.676E-04 0.481E-04 0.400E-02
 
 
 POSITION                                       TOTAL-FORCE (eV/Angst)
 -----------------------------------------------------------------------------------
      1.54891      0.95449     13.85673         0.003258     -0.001642      0.001223
      1.54901      0.95444     10.73024         0.005720     -0.004918      0.006551
     -0.00849      0.00301      7.68752        -0.007478      0.000273     -0.002595
     -0.00849      0.00275      4.56895        -0.003364     -0.001338     -0.003180
      1.58439      0.92251      6.12889         0.005887      0.006098      0.001202
      3.14251      0.03445     12.29206        -0.004024      0.001526     -0.003201
 -----------------------------------------------------------------------------------
    total drift:                               -0.001774      0.000729     -0.003316


--------------------------------------------------------------------------------------------------------



  FREE ENERGIE OF THE ION-ELECTRON SYSTEM (eV)
  ---------------------------------------------------
  free  energy   TOTEN  =       -47.16299375 eV

  energy  without entropy=      -47.16299375  energy(sigma->0) =      -47.16299375
 
 d Force = 0.3463062E-04[ 0.965E-05, 0.596E-04]  d Energy = 0.3580234E-04-0.117E-05
 d Force = 0.2302372E+01[ 0.230E+01, 0.230E+01]  d Ewald  = 0.2302372E+01-0.472E-08


--------------------------------------------------------------------------------------------------------


    POTLOK:  cpu time    0.0031: real time    0.0031


--------------------------------------------------------------------------------------------------------


 Conjugate gradient step on ions:
 trial-energy change:   -0.000036  1 .order   -0.000035   -0.000060   -0.000010
  (g-gl).g = 0.744E-04      g.g   = 0.938E-04  gl.gl    = 0.101E-03
 g(Force)  = 0.938E-04   g(Stress)= 0.000E+00 ortho     = 0.310E-05
 gamma     =   0.73431
 trial     =   0.62018
 opt step  =   0.73992  (harmonic =   0.73992) maximal distance =0.00152739
 next E    =   -47.162994   (d E  =  -0.00004)


--------------------------------------------------------------------------------------------------------


  
 reached required accuracy - stopping structural energy minimisation
     LOOP+:  cpu time    2.0255: real time    2.0337
    4ORBIT:  cpu time    0.0000: real time    0.0000

 total amount of memory used by VASP MPI-rank0    48165. kBytes
=======================================================================

   base      :      30000. kBytes
   nonl-proj :      14281. kBytes
   fftplans  :        238. kBytes
   grid      :        352. kBytes
   one-center:         15. kBytes
   wavefun   :       3279. kBytes
 
  
  
 General timing and accounting informations for this job:
 ========================================================
  
                  Total CPU time used (sec):       49.915
                            User time (sec):       49.600
                          System time (sec):        0.315
                         Elapsed time (sec):       50.877
  
                   Maximum memory used (kb):      123012.
                   Average memory used (kb):           0.
  
                          Minor page faults:        24348
                          Major page faults:            2
                 Voluntary context switches:         1335
