<?xml version="1.0" encoding="ISO-8859-1"?>
<modeling>
 <generator>
  <i name="program" type="string">vasp </i>
  <i name="version" type="string">5.4.4.18Apr17-6-g9f103f2a35  </i>
  <i name="subversion" type="string">(build Jun 26 2021 01:31:14) complex            parallel </i>
  <i name="platform" type="string">LinuxIFC </i>
  <i name="date" type="string">2021 07 11 </i>
  <i name="time" type="string">12:43:10 </i>
 </generator>
 <incar>
  <i type="string" name="SYSTEM"> VaspCalc</i>
  <i type="int" name="ISTART">     1</i>
  <i type="string" name="PREC">med</i>
  <i type="string" name="ALGO"> Fast</i>
  <i type="int" name="ISPIN">     1</i>
  <i type="int" name="NELM">   400</i>
  <i type="int" name="NELMIN">     4</i>
  <i type="int" name="IBRION">     2</i>
  <i name="EDIFF">      0.00000100</i>
  <i name="EDIFFG">     -0.01000000</i>
  <i type="int" name="NSW">  1000</i>
  <i type="int" name="ISIF">     2</i>
  <i name="ENCUT">    400.00000000</i>
  <i type="int" name="ISMEAR">     0</i>
  <i name="SIGMA">      0.10000000</i>
  <i type="int" name="NWRITE">     1</i>
  <i type="logical" name="LWAVE"> F  </i>
  <i type="logical" name="LCHARG"> F  </i>
  <v type="int" name="KPOINT_BSE">    -1     0     0     0</v>
  <i type="int" name="NELM">   400</i>
 </incar>
 <structure name="primitive_cell" >
  <crystal>
   <varray name="basis" >
    <v>       3.18650000       0.00000000       0.00000000 </v>
    <v>      -1.59325000       2.75958995       0.00000000 </v>
    <v>       0.00000000       0.00000000      20.00000000 </v>
   </varray>
   <i name="volume">    175.86866745 </i>
   <varray name="rec_basis" >
    <v>       0.31382394       0.18118634       0.00000000 </v>
    <v>       0.00000000       0.36237268       0.00000000 </v>
    <v>       0.00000000       0.00000000       0.05000000 </v>
   </varray>
  </crystal>
  <varray name="positions" >
   <v>      -0.34099080       0.34686985      -0.30664867 </v>
   <v>      -0.00980161       0.01568065      -0.38633333 </v>
   <v>      -0.34099080       0.34686985      -0.46515867 </v>
   <v>       0.00000000       0.00000000       0.38651800 </v>
   <v>      -0.33762161       0.33118919       0.30683333 </v>
   <v>       0.00000000       0.00000000       0.22800800 </v>
  </varray>
 </structure>
 <varray name="primitive_index" >
  <v type="int" >        1 </v>
  <v type="int" >        6 </v>
  <v type="int" >        2 </v>
  <v type="int" >        3 </v>
  <v type="int" >        5 </v>
  <v type="int" >        4 </v>
 </varray>
 <kpoints>
  <generation param="Gamma">
   <v type="int" name="divisions">      11       11        1 </v>
   <v name="usershift">      0.00000000       0.00000000       0.00000000 </v>
   <v name="genvec1">      0.09090909      -0.00000000       0.00000000 </v>
   <v name="genvec2">      0.00000000       0.09090909       0.00000000 </v>
   <v name="genvec3">      0.00000000       0.00000000       1.00000000 </v>
   <v name="shift">      0.00000000       0.00000000       0.00000000 </v>
  </generation>
  <varray name="kpointlist" >
   <v>       0.00000000       0.00000000       0.00000000 </v>
   <v>       0.09090909       0.00000000       0.00000000 </v>
   <v>       0.18181818       0.00000000       0.00000000 </v>
   <v>       0.27272727       0.00000000       0.00000000 </v>
   <v>       0.36363636       0.00000000       0.00000000 </v>
   <v>       0.45454545      -0.00000000       0.00000000 </v>
   <v>       0.00000000       0.09090909       0.00000000 </v>
   <v>       0.09090909       0.09090909       0.00000000 </v>
   <v>       0.18181818       0.09090909       0.00000000 </v>
   <v>       0.27272727       0.09090909       0.00000000 </v>
   <v>       0.36363636       0.09090909       0.00000000 </v>
   <v>       0.45454545       0.09090909       0.00000000 </v>
   <v>      -0.45454545       0.09090909       0.00000000 </v>
   <v>      -0.36363636       0.09090909       0.00000000 </v>
   <v>      -0.27272727       0.09090909       0.00000000 </v>
   <v>      -0.18181818       0.09090909       0.00000000 </v>
   <v>      -0.09090909       0.09090909       0.00000000 </v>
   <v>       0.00000000       0.18181818       0.00000000 </v>
   <v>       0.09090909       0.18181818       0.00000000 </v>
   <v>       0.18181818       0.18181818       0.00000000 </v>
   <v>       0.27272727       0.18181818       0.00000000 </v>
   <v>       0.36363636       0.18181818       0.00000000 </v>
   <v>       0.45454545       0.18181818       0.00000000 </v>
   <v>      -0.45454545       0.18181818       0.00000000 </v>
   <v>      -0.36363636       0.18181818       0.00000000 </v>
   <v>      -0.27272727       0.18181818       0.00000000 </v>
   <v>      -0.18181818       0.18181818       0.00000000 </v>
   <v>      -0.09090909       0.18181818       0.00000000 </v>
   <v>       0.00000000       0.27272727       0.00000000 </v>
   <v>       0.09090909       0.27272727       0.00000000 </v>
   <v>       0.18181818       0.27272727       0.00000000 </v>
   <v>       0.27272727       0.27272727       0.00000000 </v>
   <v>       0.36363636       0.27272727       0.00000000 </v>
   <v>       0.45454545       0.27272727       0.00000000 </v>
   <v>      -0.45454545       0.27272727       0.00000000 </v>
   <v>      -0.36363636       0.27272727       0.00000000 </v>
   <v>      -0.27272727       0.27272727       0.00000000 </v>
   <v>      -0.18181818       0.27272727       0.00000000 </v>
   <v>      -0.09090909       0.27272727       0.00000000 </v>
   <v>       0.00000000       0.36363636       0.00000000 </v>
   <v>       0.09090909       0.36363636       0.00000000 </v>
   <v>       0.18181818       0.36363636       0.00000000 </v>
   <v>       0.27272727       0.36363636       0.00000000 </v>
   <v>       0.36363636       0.36363636       0.00000000 </v>
   <v>       0.45454545       0.36363636       0.00000000 </v>
   <v>      -0.45454545       0.36363636       0.00000000 </v>
   <v>      -0.36363636       0.36363636       0.00000000 </v>
   <v>      -0.27272727       0.36363636       0.00000000 </v>
   <v>      -0.18181818       0.36363636       0.00000000 </v>
   <v>      -0.09090909       0.36363636       0.00000000 </v>
   <v>       0.00000000       0.45454545       0.00000000 </v>
   <v>       0.09090909       0.45454545       0.00000000 </v>
   <v>       0.18181818       0.45454545       0.00000000 </v>
   <v>       0.27272727       0.45454545       0.00000000 </v>
   <v>       0.36363636       0.45454545       0.00000000 </v>
   <v>       0.45454545       0.45454545       0.00000000 </v>
   <v>      -0.45454545       0.45454545       0.00000000 </v>
   <v>      -0.36363636       0.45454545       0.00000000 </v>
   <v>      -0.27272727       0.45454545       0.00000000 </v>
   <v>      -0.18181818       0.45454545       0.00000000 </v>
   <v>      -0.09090909       0.45454545       0.00000000 </v>
  </varray>
  <varray name="weights" >
   <v>       0.00826446 </v>
   <v>       0.01652893 </v>
   <v>       0.01652893 </v>
   <v>       0.01652893 </v>
   <v>       0.01652893 </v>
   <v>       0.01652893 </v>
   <v>       0.01652893 </v>
   <v>       0.01652893 </v>
   <v>       0.01652893 </v>
   <v>       0.01652893 </v>
   <v>       0.01652893 </v>
   <v>       0.01652893 </v>
   <v>       0.01652893 </v>
   <v>       0.01652893 </v>
   <v>       0.01652893 </v>
   <v>       0.01652893 </v>
   <v>       0.01652893 </v>
   <v>       0.01652893 </v>
   <v>       0.01652893 </v>
   <v>       0.01652893 </v>
   <v>       0.01652893 </v>
   <v>       0.01652893 </v>
   <v>       0.01652893 </v>
   <v>       0.01652893 </v>
   <v>       0.01652893 </v>
   <v>       0.01652893 </v>
   <v>       0.01652893 </v>
   <v>       0.01652893 </v>
   <v>       0.01652893 </v>
   <v>       0.01652893 </v>
   <v>       0.01652893 </v>
   <v>       0.01652893 </v>
   <v>       0.01652893 </v>
   <v>       0.01652893 </v>
   <v>       0.01652893 </v>
   <v>       0.01652893 </v>
   <v>       0.01652893 </v>
   <v>       0.01652893 </v>
   <v>       0.01652893 </v>
   <v>       0.01652893 </v>
   <v>       0.01652893 </v>
   <v>       0.01652893 </v>
   <v>       0.01652893 </v>
   <v>       0.01652893 </v>
   <v>       0.01652893 </v>
   <v>       0.01652893 </v>
   <v>       0.01652893 </v>
   <v>       0.01652893 </v>
   <v>       0.01652893 </v>
   <v>       0.01652893 </v>
   <v>       0.01652893 </v>
   <v>       0.01652893 </v>
   <v>       0.01652893 </v>
   <v>       0.01652893 </v>
   <v>       0.01652893 </v>
   <v>       0.01652893 </v>
   <v>       0.01652893 </v>
   <v>       0.01652893 </v>
   <v>       0.01652893 </v>
   <v>       0.01652893 </v>
   <v>       0.01652893 </v>
  </varray>
 </kpoints>
 <parameters>
  <separator name="general" >
   <i type="string" name="SYSTEM">VaspCalc</i>
   <i type="logical" name="LCOMPAT"> F  </i>
  </separator>
  <separator name="electronic" >
   <i type="string" name="PREC">med</i>
   <i name="ENMAX">    400.00000000</i>
   <i name="ENAUG">    373.43800000</i>
   <i name="EDIFF">      0.00000100</i>
   <i type="int" name="IALGO">    68</i>
   <i type="int" name="IWAVPR">    11</i>
   <i type="int" name="NBANDS">    24</i>
   <i name="NELECT">     36.00000000</i>
   <i type="int" name="TURBO">     0</i>
   <i type="int" name="IRESTART">     0</i>
   <i type="int" name="NREBOOT">     0</i>
   <i type="int" name="NMIN">     0</i>
   <i name="EREF">      0.00000000</i>
   <separator name="electronic smearing" >
    <i type="int" name="ISMEAR">     0</i>
    <i name="SIGMA">      0.10000000</i>
    <i name="KSPACING">      0.50000000</i>
    <i type="logical" name="KGAMMA"> T  </i>
   </separator>
   <separator name="electronic projectors" >
    <i type="logical" name="LREAL"> F  </i>
    <v name="ROPT">      0.00000000      0.00000000      0.00000000</v>
    <i type="int" name="LMAXPAW">  -100</i>
    <i type="int" name="LMAXMIX">     2</i>
    <i type="logical" name="NLSPLINE"> F  </i>
   </separator>
   <separator name="electronic startup" >
    <i type="int" name="ISTART">     0</i>
    <i type="int" name="ICHARG">     2</i>
    <i type="int" name="INIWAV">     1</i>
   </separator>
   <separator name="electronic spin" >
    <i type="int" name="ISPIN">     1</i>
    <i type="logical" name="LNONCOLLINEAR"> F  </i>
    <v name="MAGMOM">      1.00000000      1.00000000      1.00000000      1.00000000      1.00000000      1.00000000</v>
    <i name="NUPDOWN">     -1.00000000</i>
    <i type="logical" name="LSORBIT"> F  </i>
    <v name="SAXIS">      0.00000000      0.00000000      1.00000000</v>
    <i type="logical" name="LSPIRAL"> F  </i>
    <v name="QSPIRAL">      0.00000000      0.00000000      0.00000000</v>
    <i type="logical" name="LZEROZ"> F  </i>
   </separator>
   <separator name="electronic exchange-correlation" >
    <i type="logical" name="LASPH"> F  </i>
    <i type="logical" name="LMETAGGA"> F  </i>
   </separator>
   <separator name="electronic convergence" >
    <i type="int" name="NELM">   400</i>
    <i type="int" name="NELMDL">     0</i>
    <i type="int" name="NELMIN">     4</i>
    <i name="ENINI">    400.00000000</i>
    <separator name="electronic convergence detail" >
     <i type="logical" name="LDIAG"> T  </i>
     <i type="logical" name="LSUBROT"> F  </i>
     <i name="WEIMIN">      0.00100000</i>
     <i name="EBREAK">      0.00000001</i>
     <i name="DEPER">      0.30000000</i>
     <i type="int" name="NRMM">     4</i>
     <i name="TIME">      0.40000000</i>
    </separator>
   </separator>
   <separator name="electronic mixer" >
    <i name="AMIX">      0.40000000</i>
    <i name="BMIX">      1.00000000</i>
    <i name="AMIN">      0.10000000</i>
    <i name="AMIX_MAG">      1.60000000</i>
    <i name="BMIX_MAG">      1.00000000</i>
    <separator name="electronic mixer details" >
     <i type="int" name="IMIX">     4</i>
     <i type="logical" name="MIXFIRST"> F  </i>
     <i type="int" name="MAXMIX">   -45</i>
     <i name="WC">    100.00000000</i>
     <i type="int" name="INIMIX">     1</i>
     <i type="int" name="MIXPRE">     1</i>
     <i type="int" name="MREMOVE">     5</i>
    </separator>
   </separator>
   <separator name="electronic dipolcorrection" >
    <i type="logical" name="LDIPOL"> F  </i>
    <i type="logical" name="LMONO"> F  </i>
    <i type="int" name="IDIPOL">     0</i>
    <i name="EPSILON">      1.00000000</i>
    <v name="DIPOL">   -100.00000000   -100.00000000   -100.00000000</v>
    <i name="EFIELD">      0.00000000</i>
   </separator>
  </separator>
  <separator name="grids" >
   <i type="int" name="NGX">    16</i>
   <i type="int" name="NGY">    16</i>
   <i type="int" name="NGZ">    98</i>
   <i type="int" name="NGXF">    20</i>
   <i type="int" name="NGYF">    20</i>
   <i type="int" name="NGZF">   126</i>
   <i type="logical" name="ADDGRID"> F  </i>
  </separator>
  <separator name="ionic" >
   <i type="int" name="NSW">  1000</i>
   <i type="int" name="IBRION">     2</i>
   <i type="int" name="MDALGO">     0</i>
   <i type="int" name="ISIF">     2</i>
   <i name="PSTRESS">      0.00000000</i>
   <i name="EDIFFG">     -0.01000000</i>
   <i type="int" name="NFREE">     1</i>
   <i name="POTIM">      0.50000000</i>
   <i name="SMASS">     -3.00000000</i>
   <i name="SCALEE">      1.00000000</i>
  </separator>
  <separator name="ionic md" >
   <i name="TEBEG">      0.00010000</i>
   <i name="TEEND">      0.00010000</i>
   <i type="int" name="NBLOCK">     1</i>
   <i type="int" name="KBLOCK">  1000</i>
   <i type="int" name="NPACO">   256</i>
   <i name="APACO">     16.00000000</i>
  </separator>
  <separator name="symmetry" >
   <i type="int" name="ISYM">     2</i>
   <i name="SYMPREC">      0.00001000</i>
  </separator>
  <separator name="dos" >
   <i type="int" name="LORBIT">     0</i>
   <v name="RWIGS">     -1.00000000     -1.00000000     -1.00000000</v>
   <i type="int" name="NEDOS">   301</i>
   <i name="EMIN">     10.00000000</i>
   <i name="EMAX">    -10.00000000</i>
   <i name="EFERMI">      0.00000000</i>
  </separator>
  <separator name="writing" >
   <i type="int" name="NWRITE">     1</i>
   <i type="logical" name="LWAVE"> F  </i>
   <i type="logical" name="LDOWNSAMPLE"> F  </i>
   <i type="logical" name="LCHARG"> F  </i>
   <i type="logical" name="LPARD"> F  </i>
   <i type="logical" name="LVTOT"> F  </i>
   <i type="logical" name="LVHAR"> F  </i>
   <i type="logical" name="LELF"> F  </i>
   <i type="logical" name="LOPTICS"> F  </i>
   <v name="STM">      0.00000000      0.00000000      0.00000000      0.00000000      0.00000000      0.00000000      0.00000000</v>
  </separator>
  <separator name="performance" >
   <i type="int" name="NPAR">     4</i>
   <i type="int" name="NSIM">     4</i>
   <i type="int" name="NBLK">    -1</i>
   <i type="logical" name="LPLANE"> T  </i>
   <i type="logical" name="LSCALAPACK"> T  </i>
   <i type="logical" name="LSCAAWARE"> F  </i>
   <i type="logical" name="LSCALU"> F  </i>
   <i type="logical" name="LASYNC"> F  </i>
   <i type="logical" name="LORBITALREAL"> F  </i>
  </separator>
  <separator name="miscellaneous" >
   <i type="int" name="IDIOT">     3</i>
   <i type="int" name="ISPECIAL">     0</i>
   <i type="logical" name="LMUSIC"> F  </i>
   <v name="POMASS">     32.06600000     95.94000000    183.85000000</v>
   <v name="DARWINR">      0.00000000      0.00000000      0.00000000</v>
   <v name="DARWINV">      1.00000000      1.00000000      1.00000000</v>
   <i type="logical" name="LCORR"> T  </i>
  </separator>
  <i type="logical" name="GGA_COMPAT"> T  </i>
  <i type="logical" name="LBERRY"> F  </i>
  <i type="int" name="ICORELEVEL">     0</i>
  <i type="logical" name="LDAU"> F  </i>
  <i type="int" name="I_CONSTRAINED_M">     0</i>
  <separator name="electronic exchange-correlation" >
   <i type="string" name="GGA">--</i>
   <i type="int" name="VOSKOWN">     0</i>
   <i type="logical" name="LHFCALC"> F  </i>
   <i type="string" name="PRECFOCK"></i>
   <i type="logical" name="LSYMGRAD"> F  </i>
   <i type="logical" name="LHFONE"> F  </i>
   <i type="logical" name="LRHFCALC"> F  </i>
   <i type="logical" name="LTHOMAS"> F  </i>
   <i type="logical" name="LMODELHF"> F  </i>
   <i name="ENCUT4O">     -1.00000000</i>
   <i type="int" name="EXXOEP">     0</i>
   <i type="int" name="FOURORBIT">     0</i>
   <i name="AEXX">      0.00000000</i>
   <i name="HFALPHA">      0.00000000</i>
   <i name="MCALPHA">      0.00000000</i>
   <i name="ALDAX">      1.00000000</i>
   <i name="AGGAX">      1.00000000</i>
   <i name="ALDAC">      1.00000000</i>
   <i name="AGGAC">      1.00000000</i>
   <i type="int" name="NKREDX">     1</i>
   <i type="int" name="NKREDY">     1</i>
   <i type="int" name="NKREDZ">     1</i>
   <i type="logical" name="SHIFTRED"> F  </i>
   <i type="logical" name="ODDONLY"> F  </i>
   <i type="logical" name="EVENONLY"> F  </i>
   <i type="int" name="LMAXFOCK">     0</i>
   <i type="int" name="NMAXFOCKAE">     0</i>
   <i type="logical" name="LFOCKAEDFT"> F  </i>
   <i name="HFSCREEN">      0.00000000</i>
   <i name="HFSCREENC">      0.00000000</i>
   <i type="int" name="NBANDSGWLOW">     0</i>
  </separator>
  <separator name="vdW DFT" >
   <i type="logical" name="LUSE_VDW"> F  </i>
   <i name="Zab_VDW">     -0.84910000</i>
   <i name="PARAM1">      0.12340000</i>
   <i name="PARAM2">      1.00000000</i>
   <i name="PARAM3">      0.00000000</i>
  </separator>
  <separator name="model GW" >
   <i type="int" name="MODEL_GW">     0</i>
   <i name="MODEL_EPS0">     17.58686674</i>
   <i name="MODEL_ALPHA">      1.00000000</i>
  </separator>
  <separator name="linear response parameters" >
   <i type="logical" name="LEPSILON"> F  </i>
   <i type="logical" name="LRPA"> F  </i>
   <i type="logical" name="LNABLA"> F  </i>
   <i type="logical" name="LVEL"> F  </i>
   <i type="int" name="KINTER">     0</i>
   <i name="CSHIFT">      0.10000000</i>
   <i name="OMEGAMAX">     -1.00000000</i>
   <i name="DEG_THRESHOLD">      0.00200000</i>
   <i name="RTIME">     -0.10000000</i>
   <i name="WPLASMAI">      0.00000000</i>
   <v name="DFIELD">      0.00000000      0.00000000      0.00000000</v>
   <v name="WPLASMA">      0.00000000      0.00000000      0.00000000      0.00000000      0.00000000      0.00000000      0.00000000      0.00000000      0.00000000</v>
  </separator>
  <separator name="orbital magnetization" >
   <i type="logical" name="NUCIND"> F  </i>
   <v name="MAGPOS">      0.00000000      0.00000000      0.00000000</v>
   <i type="logical" name="LNICSALL"> T  </i>
   <i type="logical" name="ORBITALMAG"> F  </i>
   <i type="logical" name="LMAGBLOCH"> F  </i>
   <i type="logical" name="LCHIMAG"> F  </i>
   <i type="logical" name="LGAUGE"> T  </i>
   <i type="int" name="MAGATOM">     0</i>
   <v name="MAGDIPOL">      0.00000000      0.00000000      0.00000000</v>
   <v name="AVECCONST">      0.00000000      0.00000000      0.00000000</v>
  </separator>
  <separator name="response functions" >
   <i type="logical" name="LADDER"> F  </i>
   <i type="logical" name="LRPAFORCE"> F  </i>
   <i type="logical" name="LFXC"> F  </i>
   <i type="logical" name="LHARTREE"> T  </i>
   <i type="int" name="IBSE">     0</i>
   <v type="int" name="KPOINT">    -1     0     0     0</v>
   <i type="logical" name="LTCTE"> F  </i>
   <i type="logical" name="LTETE"> F  </i>
   <i type="logical" name="LTRIPLET"> F  </i>
   <i type="logical" name="LFXCEPS"> F  </i>
   <i type="logical" name="LFXHEG"> F  </i>
   <i type="int" name="NATURALO">     2</i>
   <i type="logical" name="L2ORDER"> F  </i>
   <i type="logical" name="LMP2LT"> F  </i>
   <i type="logical" name="LUSEW"> F  </i>
   <i name="ENCUTGW">     -2.00000000</i>
   <i name="ENCUTGWSOFT">     -2.00000000</i>
   <i name="ENCUTLF">     -1.00000000</i>
   <i type="int" name="LMAXMP2">    -1</i>
   <i name="SCISSOR">      0.00000000</i>
   <i type="int" name="NOMEGA">     0</i>
   <i type="int" name="NOMEGAR">     0</i>
   <i type="int" name="NBANDSGW">    -1</i>
   <i type="int" name="NBANDSO">    -1</i>
   <i type="int" name="NBANDSV">    -1</i>
   <i type="int" name="NELM">   400</i>
   <i type="int" name="NELMHF">     1</i>
   <i type="int" name="DIM">     3</i>
   <i type="int" name="ANTIRES">     0</i>
   <i name="OMEGAMAX">    -30.00000000</i>
   <i name="OMEGAMIN">    -30.00000000</i>
   <i name="OMEGATL">   -200.00000000</i>
   <i type="int" name="OMEGAGRID">   140</i>
   <i name="CSHIFT">     -0.10000000</i>
   <i type="logical" name="SELFENERGY"> F  </i>
   <i type="logical" name="LSPECTRAL"> F  </i>
   <i type="logical" name="LSPECTRALGW"> F  </i>
   <i type="logical" name="LSINGLES"> F  </i>
   <i type="logical" name="LFERMIGW"> F  </i>
   <i type="logical" name="ODDONLYGW"> F  </i>
   <i type="logical" name="EVENONLYGW"> F  </i>
   <i type="int" name="NKREDLFX">     1</i>
   <i type="int" name="NKREDLFY">     1</i>
   <i type="int" name="NKREDLFZ">     1</i>
   <i type="int" name="MAXMEM">  2800</i>
   <i type="int" name="TELESCOPE">     0</i>
   <i type="int" name="TAUPAR">     1</i>
   <i type="int" name="OMEGAPAR">    -1</i>
   <i name="LAMBDA">      1.00000000</i>
  </separator>
  <separator name="External order field" >
   <i name="OFIELD_KAPPA">      0.00000000</i>
   <v name="OFIELD_K">      0.00000000      0.00000000      0.00000000</v>
   <i name="OFIELD_Q6_NEAR">      0.00000000</i>
   <i name="OFIELD_Q6_FAR">      0.00000000</i>
   <i name="OFIELD_A">      0.00000000</i>
  </separator>
 </parameters>
 <atominfo>
  <atoms>       6 </atoms>
  <types>       3 </types>
  <array name="atoms" >
   <dimension dim="1">ion</dimension>
   <field type="string">element</field>
   <field type="int">atomtype</field>
   <set>
    <rc><c>S </c><c>   1</c></rc>
    <rc><c>S </c><c>   1</c></rc>
    <rc><c>S </c><c>   1</c></rc>
    <rc><c>S </c><c>   1</c></rc>
    <rc><c>Mo</c><c>   2</c></rc>
    <rc><c>W </c><c>   3</c></rc>
   </set>
  </array>
  <array name="atomtypes" >
   <dimension dim="1">type</dimension>
   <field type="int">atomspertype</field>
   <field type="string">element</field>
   <field>mass</field>
   <field>valence</field>
   <field type="string">pseudopotential</field>
   <set>
    <rc><c>   4</c><c>S </c><c>     32.06600000</c><c>      6.00000000</c><c>  PAW_PBE S 17Jan2003                   </c></rc>
    <rc><c>   1</c><c>Mo</c><c>     95.94000000</c><c>      6.00000000</c><c> PAW_PBE Mo 08Apr2002                   </c></rc>
    <rc><c>   1</c><c>W </c><c>    183.85000000</c><c>      6.00000000</c><c> PAW_PBE W 08Apr2002                    </c></rc>
   </set>
  </array>
 </atominfo>
 <structure name="initialpos" >
  <crystal>
   <varray name="basis" >
    <v>       3.18650000       0.00000000       0.00000000 </v>
    <v>      -1.59325000       2.75958995       0.00000000 </v>
    <v>       0.00000000       0.00000000      20.00000000 </v>
   </varray>
   <i name="volume">    175.86866745 </i>
   <varray name="rec_basis" >
    <v>       0.31382394       0.18118634       0.00000000 </v>
    <v>       0.00000000       0.36237268       0.00000000 </v>
    <v>       0.00000000       0.00000000       0.05000000 </v>
   </varray>
  </crystal>
  <varray name="positions" >
   <v>       0.65900920       0.34686985       0.69335133 </v>
   <v>       0.65900920       0.34686985       0.53484133 </v>
   <v>       0.00000000       0.00000000       0.38651800 </v>
   <v>       0.00000000       0.00000000       0.22800800 </v>
   <v>       0.66237839       0.33118919       0.30683333 </v>
   <v>       0.99019839       0.01568065       0.61366667 </v>
  </varray>
  <varray name="selective"  type="logical" >
   <v type="logical" >  T  T  T </v>
   <v type="logical" >  T  T  T </v>
   <v type="logical" >  T  T  T </v>
   <v type="logical" >  T  T  T </v>
   <v type="logical" >  T  T  T </v>
   <v type="logical" >  T  T  T </v>
  </varray>
  <nose>
   <v>      -3.00000000       0.00000000       0.00010000       0.00010000 </v>
  </nose>
 </structure>
 <calculation>
  <scstep>
   <time name="dav">    0.39    0.39</time>
   <time name="total">    0.40    0.40</time>
   <energy>
    <i name="alphaZ">     68.88242450 </i>
    <i name="ewald">   2358.92330674 </i>
    <i name="hartreedc">  -3922.28712091 </i>
    <i name="XCdc">    -59.27676862 </i>
    <i name="pawpsdc">    788.69199195 </i>
    <i name="pawaedc">   -645.62869777 </i>
    <i name="eentropy">     -0.01004813 </i>
    <i name="bandstr">     85.38129313 </i>
    <i name="atom">   1529.39674839 </i>
    <i name="e_fr_energy">    204.07312930 </i>
    <i name="e_wo_entrp">    204.08317743 </i>
    <i name="e_0_energy">    204.07815336 </i>
   </energy>
  </scstep>
  <scstep>
   <time name="dav">    0.50    0.50</time>
   <time name="total">    0.50    0.50</time>
   <energy>
    <i name="e_fr_energy">    -28.88957175 </i>
    <i name="e_wo_entrp">    -28.88696113 </i>
    <i name="e_0_energy">    -28.88826644 </i>
   </energy>
  </scstep>
  <scstep>
   <time name="dav">    0.47    0.47</time>
   <time name="total">    0.47    0.47</time>
   <energy>
    <i name="e_fr_energy">    -47.97709706 </i>
    <i name="e_wo_entrp">    -47.97709706 </i>
    <i name="e_0_energy">    -47.97709706 </i>
   </energy>
  </scstep>
  <scstep>
   <time name="dav">    0.50    0.50</time>
   <time name="total">    0.50    0.50</time>
   <energy>
    <i name="e_fr_energy">    -48.53408464 </i>
    <i name="e_wo_entrp">    -48.53408464 </i>
    <i name="e_0_energy">    -48.53408464 </i>
   </energy>
  </scstep>
  <scstep>
   <time name="dav">    0.47    0.47</time>
   <time name="total">    0.49    0.49</time>
   <energy>
    <i name="e_fr_energy">    -48.54939572 </i>
    <i name="e_wo_entrp">    -48.54939572 </i>
    <i name="e_0_energy">    -48.54939572 </i>
   </energy>
  </scstep>
  <scstep>
   <time name="diag">    0.10    0.10</time>
   <time name="diis">    0.20    0.20</time>
   <time name="orth">    0.01    0.01</time>
   <time name="total">    0.33    0.33</time>
   <energy>
    <i name="e_fr_energy">    -46.11721980 </i>
    <i name="e_wo_entrp">    -46.11721928 </i>
    <i name="e_0_energy">    -46.11721954 </i>
   </energy>
  </scstep>
  <scstep>
   <time name="diag">    0.10    0.10</time>
   <time name="diis">    0.19    0.19</time>
   <time name="orth">    0.01    0.01</time>
   <time name="total">    0.32    0.32</time>
   <energy>
    <i name="e_fr_energy">    -45.55224059 </i>
    <i name="e_wo_entrp">    -45.55224059 </i>
    <i name="e_0_energy">    -45.55224059 </i>
   </energy>
  </scstep>
  <scstep>
   <time name="diag">    0.10    0.10</time>
   <time name="diis">    0.19    0.19</time>
   <time name="orth">    0.01    0.01</time>
   <time name="total">    0.32    0.32</time>
   <energy>
    <i name="e_fr_energy">    -45.45545932 </i>
    <i name="e_wo_entrp">    -45.45545932 </i>
    <i name="e_0_energy">    -45.45545932 </i>
   </energy>
  </scstep>
  <scstep>
   <time name="diag">    0.10    0.10</time>
   <time name="diis">    0.20    0.20</time>
   <time name="orth">    0.01    0.01</time>
   <time name="total">    0.33    0.33</time>
   <energy>
    <i name="e_fr_energy">    -45.44376578 </i>
    <i name="e_wo_entrp">    -45.44376578 </i>
    <i name="e_0_energy">    -45.44376578 </i>
   </energy>
  </scstep>
  <scstep>
   <time name="diag">    0.10    0.10</time>
   <time name="diis">    0.20    0.20</time>
   <time name="orth">    0.01    0.01</time>
   <time name="total">    0.34    0.34</time>
   <energy>
    <i name="e_fr_energy">    -45.44124537 </i>
    <i name="e_wo_entrp">    -45.44124537 </i>
    <i name="e_0_energy">    -45.44124537 </i>
   </energy>
  </scstep>
  <scstep>
   <time name="diag">    0.10    0.10</time>
   <time name="diis">    0.20    0.20</time>
   <time name="orth">    0.01    0.01</time>
   <time name="total">    0.33    0.33</time>
   <energy>
    <i name="e_fr_energy">    -45.44034852 </i>
    <i name="e_wo_entrp">    -45.44034852 </i>
    <i name="e_0_energy">    -45.44034852 </i>
   </energy>
  </scstep>
  <scstep>
   <time name="diag">    0.10    0.10</time>
   <time name="diis">    0.20    0.20</time>
   <time name="orth">    0.01    0.01</time>
   <time name="total">    0.33    0.33</time>
   <energy>
    <i name="e_fr_energy">    -45.44021987 </i>
    <i name="e_wo_entrp">    -45.44021987 </i>
    <i name="e_0_energy">    -45.44021987 </i>
   </energy>
  </scstep>
  <scstep>
   <time name="diag">    0.10    0.10</time>
   <time name="diis">    0.19    0.19</time>
   <time name="orth">    0.01    0.01</time>
   <time name="total">    0.33    0.33</time>
   <energy>
    <i name="e_fr_energy">    -45.44009232 </i>
    <i name="e_wo_entrp">    -45.44009232 </i>
    <i name="e_0_energy">    -45.44009232 </i>
   </energy>
  </scstep>
  <scstep>
   <time name="diag">    0.10    0.10</time>
   <time name="diis">    0.19    0.19</time>
   <time name="orth">    0.01    0.01</time>
   <time name="total">    0.32    0.33</time>
   <energy>
    <i name="e_fr_energy">    -45.44016344 </i>
    <i name="e_wo_entrp">    -45.44016344 </i>
    <i name="e_0_energy">    -45.44016344 </i>
   </energy>
  </scstep>
  <scstep>
   <time name="diag">    0.10    0.10</time>
   <time name="diis">    0.19    0.19</time>
   <time name="orth">    0.01    0.01</time>
   <time name="total">    0.32    0.32</time>
   <energy>
    <i name="e_fr_energy">    -45.44031529 </i>
    <i name="e_wo_entrp">    -45.44031529 </i>
    <i name="e_0_energy">    -45.44031529 </i>
   </energy>
  </scstep>
  <scstep>
   <time name="diag">    0.10    0.10</time>
   <time name="diis">    0.19    0.19</time>
   <time name="orth">    0.01    0.01</time>
   <time name="total">    0.33    0.33</time>
   <energy>
    <i name="e_fr_energy">    -45.44045067 </i>
    <i name="e_wo_entrp">    -45.44045067 </i>
    <i name="e_0_energy">    -45.44045067 </i>
   </energy>
  </scstep>
  <scstep>
   <time name="diag">    0.10    0.10</time>
   <time name="diis">    0.19    0.19</time>
   <time name="orth">    0.01    0.01</time>
   <time name="total">    0.32    0.33</time>
   <energy>
    <i name="e_fr_energy">    -45.44048762 </i>
    <i name="e_wo_entrp">    -45.44048762 </i>
    <i name="e_0_energy">    -45.44048762 </i>
   </energy>
  </scstep>
  <scstep>
   <time name="diag">    0.10    0.10</time>
   <time name="diis">    0.14    0.14</time>
   <time name="orth">    0.01    0.01</time>
   <time name="total">    0.27    0.27</time>
   <energy>
    <i name="e_fr_energy">    -45.44049902 </i>
    <i name="e_wo_entrp">    -45.44049902 </i>
    <i name="e_0_energy">    -45.44049902 </i>
   </energy>
  </scstep>
  <scstep>
   <time name="diag">    0.10    0.10</time>
   <time name="diis">    0.13    0.13</time>
   <time name="orth">    0.01    0.01</time>
   <time name="total">    0.26    0.26</time>
   <energy>
    <i name="e_fr_energy">    -45.44050017 </i>
    <i name="e_wo_entrp">    -45.44050017 </i>
    <i name="e_0_energy">    -45.44050017 </i>
   </energy>
  </scstep>
  <scstep>
   <time name="diag">    0.10    0.10</time>
   <time name="diis">    0.13    0.13</time>
   <time name="orth">    0.01    0.01</time>
   <time name="total">    0.24    0.24</time>
   <energy>
    <i name="alphaZ">     68.88242450 </i>
    <i name="ewald">   2358.92330674 </i>
    <i name="hartreedc">  -3936.66787418 </i>
    <i name="XCdc">    -57.01045898 </i>
    <i name="pawpsdc">    921.79565602 </i>
    <i name="pawaedc">   -782.08198461 </i>
    <i name="eentropy">     -0.00000000 </i>
    <i name="bandstr">   -148.67831847 </i>
    <i name="atom">   1529.39674839 </i>
    <i name="e_fr_energy">    -45.44050059 </i>
    <i name="e_wo_entrp">    -45.44050059 </i>
    <i name="e_0_energy">    -45.44050059 </i>
   </energy>
  </scstep>
  <structure>
   <crystal>
    <varray name="basis" >
     <v>       3.18650000       0.00000000       0.00000000 </v>
     <v>      -1.59325000       2.75958995       0.00000000 </v>
     <v>       0.00000000       0.00000000      20.00000000 </v>
    </varray>
    <i name="volume">    175.86866745 </i>
    <varray name="rec_basis" >
     <v>       0.31382394       0.18118634       0.00000000 </v>
     <v>       0.00000000       0.36237268       0.00000000 </v>
     <v>       0.00000000       0.00000000       0.05000000 </v>
    </varray>
   </crystal>
   <varray name="positions" >
    <v>       0.65900920       0.34686985       0.69335133 </v>
    <v>       0.65900920       0.34686985       0.53484133 </v>
    <v>       0.00000000       0.00000000       0.38651800 </v>
    <v>       0.00000000       0.00000000       0.22800800 </v>
    <v>       0.66237839       0.33118919       0.30683333 </v>
    <v>       0.99019839       0.01568065       0.61366667 </v>
   </varray>
  </structure>
  <varray name="forces" >
   <v>      -0.10229176       0.05877901      -0.53190750 </v>
   <v>      -0.09921697       0.05452724       0.36567884 </v>
   <v>      -0.10009109      -0.04847184      -0.64709073 </v>
   <v>      -0.09761658      -0.05750980       0.33820837 </v>
   <v>       0.19025269       0.11381171       0.25520070 </v>
   <v>       0.20896372      -0.12113632       0.21991032 </v>
  </varray>
  <varray name="stress" >
   <v>      -8.85244702       0.03809474       0.37628482 </v>
   <v>       0.03809475      -9.93204373      -0.25998264 </v>
   <v>       0.37628483      -0.25998266     -25.63253227 </v>
  </varray>
  <energy>
   <i name="e_fr_energy">    -47.13438247 </i>
   <i name="e_wo_entrp">    -47.13438247 </i>
   <i name="e_0_energy">     -0.00000000 </i>
  </energy>
  <time name="totalsc">    7.51    7.54</time>
 </calculation>
 <calculation>
  <scstep>
   <time name="dav">    0.39    0.39</time>
   <time name="total">    0.41    0.42</time>
   <energy>
    <i name="alphaZ">     68.88242450 </i>
    <i name="ewald">   2389.94217241 </i>
    <i name="hartreedc">  -3965.79426793 </i>
    <i name="XCdc">    -56.81305789 </i>
    <i name="pawpsdc">    921.79386837 </i>
    <i name="pawaedc">   -782.08019215 </i>
    <i name="eentropy">     -0.00000000 </i>
    <i name="bandstr">   -150.77790948 </i>
    <i name="atom">   1529.39674839 </i>
    <i name="e_fr_energy">    -45.45021380 </i>
    <i name="e_wo_entrp">    -45.45021380 </i>
    <i name="e_0_energy">    -45.45021380 </i>
   </energy>
  </scstep>
  <scstep>
   <time name="diag">    0.10    0.10</time>
   <time name="diis">    0.19    0.19</time>
   <time name="orth">    0.01    0.01</time>
   <time name="total">    0.32    0.33</time>
   <energy>
    <i name="e_fr_energy">    -45.46378138 </i>
    <i name="e_wo_entrp">    -45.46378138 </i>
    <i name="e_0_energy">    -45.46378138 </i>
   </energy>
  </scstep>
  <scstep>
   <time name="diag">    0.10    0.10</time>
   <time name="diis">    0.21    0.21</time>
   <time name="orth">    0.01    0.01</time>
   <time name="total">    0.34    0.34</time>
   <energy>
    <i name="e_fr_energy">    -45.46388808 </i>
    <i name="e_wo_entrp">    -45.46388808 </i>
    <i name="e_0_energy">    -45.46388808 </i>
   </energy>
  </scstep>
  <scstep>
   <time name="diag">    0.10    0.10</time>
   <time name="diis">    0.19    0.19</time>
   <time name="orth">    0.01    0.01</time>
   <time name="total">    0.32    0.32</time>
   <energy>
    <i name="e_fr_energy">    -45.46353530 </i>
    <i name="e_wo_entrp">    -45.46353530 </i>
    <i name="e_0_energy">    -45.46353530 </i>
   </energy>
  </scstep>
  <scstep>
   <time name="diag">    0.10    0.10</time>
   <time name="diis">    0.19    0.19</time>
   <time name="orth">    0.01    0.01</time>
   <time name="total">    0.32    0.32</time>
   <energy>
    <i name="e_fr_energy">    -45.46349895 </i>
    <i name="e_wo_entrp">    -45.46349895 </i>
    <i name="e_0_energy">    -45.46349895 </i>
   </energy>
  </scstep>
  <scstep>
   <time name="diag">    0.10    0.10</time>
   <time name="diis">    0.19    0.20</time>
   <time name="orth">    0.01    0.01</time>
   <time name="total">    0.33    0.33</time>
   <energy>
    <i name="e_fr_energy">    -45.46346478 </i>
    <i name="e_wo_entrp">    -45.46346478 </i>
    <i name="e_0_energy">    -45.46346478 </i>
   </energy>
  </scstep>
  <scstep>
   <time name="diag">    0.10    0.10</time>
   <time name="diis">    0.19    0.19</time>
   <time name="orth">    0.01    0.01</time>
   <time name="total">    0.32    0.32</time>
   <energy>
    <i name="e_fr_energy">    -45.46345561 </i>
    <i name="e_wo_entrp">    -45.46345561 </i>
    <i name="e_0_energy">    -45.46345561 </i>
   </energy>
  </scstep>
  <scstep>
   <time name="diag">    0.10    0.10</time>
   <time name="diis">    0.16    0.17</time>
   <time name="orth">    0.01    0.01</time>
   <time name="total">    0.30    0.30</time>
   <energy>
    <i name="e_fr_energy">    -45.46345672 </i>
    <i name="e_wo_entrp">    -45.46345672 </i>
    <i name="e_0_energy">    -45.46345672 </i>
   </energy>
  </scstep>
  <scstep>
   <time name="diag">    0.10    0.10</time>
   <time name="diis">    0.14    0.14</time>
   <time name="orth">    0.01    0.01</time>
   <time name="total">    0.28    0.28</time>
   <energy>
    <i name="e_fr_energy">    -45.46345779 </i>
    <i name="e_wo_entrp">    -45.46345779 </i>
    <i name="e_0_energy">    -45.46345779 </i>
   </energy>
  </scstep>
  <scstep>
   <time name="diag">    0.10    0.10</time>
   <time name="diis">    0.13    0.13</time>
   <time name="orth">    0.01    0.01</time>
   <time name="total">    0.25    0.25</time>
   <energy>
    <i name="alphaZ">     68.88242450 </i>
    <i name="ewald">   2389.94217241 </i>
    <i name="hartreedc">  -3965.95979635 </i>
    <i name="XCdc">    -56.81358193 </i>
    <i name="pawpsdc">    930.67030918 </i>
    <i name="pawaedc">   -791.06852409 </i>
    <i name="eentropy">     -0.00000000 </i>
    <i name="bandstr">   -150.51321069 </i>
    <i name="atom">   1529.39674839 </i>
    <i name="e_fr_energy">    -45.46345859 </i>
    <i name="e_wo_entrp">    -45.46345859 </i>
    <i name="e_0_energy">    -45.46345859 </i>
   </energy>
  </scstep>
  <structure>
   <crystal>
    <varray name="basis" >
     <v>       3.18650000       0.00000000       0.00000000 </v>
     <v>      -1.59325000       2.75958995       0.00000000 </v>
     <v>       0.00000000       0.00000000      20.00000000 </v>
    </varray>
    <i name="volume">    175.86866745 </i>
    <varray name="rec_basis" >
     <v>       0.31382394       0.18118634       0.00000000 </v>
     <v>       0.00000000       0.36237268       0.00000000 </v>
     <v>       0.00000000       0.00000000       0.05000000 </v>
    </varray>
   </crystal>
   <varray name="positions" >
    <v>       0.65797431       0.34789741       0.69206830 </v>
    <v>       0.65798370       0.34782308       0.53572340 </v>
    <v>      -0.00193904      -0.00084738       0.38495713 </v>
    <v>      -0.00198057      -0.00100538       0.22882380 </v>
    <v>       0.66625357       0.33317883       0.30744891 </v>
    <v>       0.99230320       0.01356297       0.61419712 </v>
   </varray>
  </structure>
  <varray name="forces" >
   <v>       0.05150005      -0.02931314       0.11898446 </v>
   <v>       0.05212909      -0.03156825       0.14557689 </v>
   <v>       0.03248839       0.02475280       0.10140906 </v>
   <v>       0.03578289       0.02201994       0.19109552 </v>
   <v>      -0.07587842      -0.03982137      -0.31514989 </v>
   <v>      -0.09602198       0.05393003      -0.24191604 </v>
  </varray>
  <varray name="stress" >
   <v>      -1.36462847       0.15397779       0.32657017 </v>
   <v>       0.15397777      -0.63157994      -0.32762648 </v>
   <v>       0.32657012      -0.32762646      -1.84206981 </v>
  </varray>
  <energy>
   <i name="e_fr_energy">    -47.15938259 </i>
   <i name="e_wo_entrp">    -47.15938259 </i>
   <i name="e_0_energy">     -0.00000000 </i>
  </energy>
  <time name="totalsc">    3.64    3.66</time>
 </calculation>
 <calculation>
  <scstep>
   <time name="dav">    0.45    0.45</time>
   <time name="total">    0.47    0.47</time>
   <energy>
    <i name="alphaZ">     68.88242450 </i>
    <i name="ewald">   2385.52300424 </i>
    <i name="hartreedc">  -3961.80325733 </i>
    <i name="XCdc">    -56.84203383 </i>
    <i name="pawpsdc">    930.67397808 </i>
    <i name="pawaedc">   -791.07220637 </i>
    <i name="eentropy">     -0.00000000 </i>
    <i name="bandstr">   -150.22288355 </i>
    <i name="atom">   1529.39674839 </i>
    <i name="e_fr_energy">    -45.46422586 </i>
    <i name="e_wo_entrp">    -45.46422586 </i>
    <i name="e_0_energy">    -45.46422586 </i>
   </energy>
  </scstep>
  <scstep>
   <time name="diag">    0.10    0.10</time>
   <time name="diis">    0.19    0.19</time>
   <time name="orth">    0.01    0.01</time>
   <time name="total">    0.32    0.32</time>
   <energy>
    <i name="e_fr_energy">    -45.46447760 </i>
    <i name="e_wo_entrp">    -45.46447760 </i>
    <i name="e_0_energy">    -45.46447760 </i>
   </energy>
  </scstep>
  <scstep>
   <time name="diag">    0.10    0.10</time>
   <time name="diis">    0.20    0.20</time>
   <time name="orth">    0.01    0.01</time>
   <time name="total">    0.33    0.34</time>
   <energy>
    <i name="e_fr_energy">    -45.46447614 </i>
    <i name="e_wo_entrp">    -45.46447614 </i>
    <i name="e_0_energy">    -45.46447614 </i>
   </energy>
  </scstep>
  <scstep>
   <time name="diag">    0.10    0.10</time>
   <time name="diis">    0.19    0.19</time>
   <time name="orth">    0.01    0.01</time>
   <time name="total">    0.32    0.32</time>
   <energy>
    <i name="e_fr_energy">    -45.46446805 </i>
    <i name="e_wo_entrp">    -45.46446805 </i>
    <i name="e_0_energy">    -45.46446805 </i>
   </energy>
  </scstep>
  <scstep>
   <time name="diag">    0.10    0.10</time>
   <time name="diis">    0.19    0.19</time>
   <time name="orth">    0.01    0.01</time>
   <time name="total">    0.32    0.32</time>
   <energy>
    <i name="e_fr_energy">    -45.46446516 </i>
    <i name="e_wo_entrp">    -45.46446516 </i>
    <i name="e_0_energy">    -45.46446516 </i>
   </energy>
  </scstep>
  <scstep>
   <time name="diag">    0.10    0.10</time>
   <time name="diis">    0.13    0.13</time>
   <time name="orth">    0.01    0.01</time>
   <time name="total">    0.24    0.25</time>
   <energy>
    <i name="alphaZ">     68.88242450 </i>
    <i name="ewald">   2385.52300424 </i>
    <i name="hartreedc">  -3961.75903095 </i>
    <i name="XCdc">    -56.84207643 </i>
    <i name="pawpsdc">    929.40272930 </i>
    <i name="pawaedc">   -789.78494392 </i>
    <i name="eentropy">     -0.00000000 </i>
    <i name="bandstr">   -150.28331977 </i>
    <i name="atom">   1529.39674839 </i>
    <i name="e_fr_energy">    -45.46446463 </i>
    <i name="e_wo_entrp">    -45.46446463 </i>
    <i name="e_0_energy">    -45.46446463 </i>
   </energy>
  </scstep>
  <structure>
   <crystal>
    <varray name="basis" >
     <v>       3.18650000       0.00000000       0.00000000 </v>
     <v>      -1.59325000       2.75958995       0.00000000 </v>
     <v>       0.00000000       0.00000000      20.00000000 </v>
    </varray>
    <i name="volume">    175.86866745 </i>
    <varray name="rec_basis" >
     <v>       0.31382394       0.18118634       0.00000000 </v>
     <v>       0.00000000       0.36237268       0.00000000 </v>
     <v>       0.00000000       0.00000000       0.05000000 </v>
    </varray>
   </crystal>
   <varray name="positions" >
    <v>       0.65812093       0.34775183       0.69225008 </v>
    <v>       0.65812899       0.34768803       0.53559843 </v>
    <v>      -0.00166432      -0.00072732       0.38517827 </v>
    <v>      -0.00169997      -0.00086294       0.22870822 </v>
    <v>       0.66570455       0.33289694       0.30736170 </v>
    <v>       0.99200499       0.01386300       0.61412197 </v>
   </varray>
  </structure>
  <varray name="forces" >
   <v>       0.02802542      -0.01591039       0.02257339 </v>
   <v>       0.03025483      -0.01914111       0.17796838 </v>
   <v>       0.01208536       0.01346967      -0.01006003 </v>
   <v>       0.01671613       0.01062138       0.21317165 </v>
   <v>      -0.03628993      -0.01700844      -0.23009578 </v>
   <v>      -0.05079180       0.02796889      -0.17355761 </v>
  </varray>
  <varray name="stress" >
   <v>      -2.47621650       0.13654536       0.30707635 </v>
   <v>       0.13654535      -2.04165032      -0.31817735 </v>
   <v>       0.30707633      -0.31817736      -5.20404409 </v>
  </varray>
  <energy>
   <i name="e_fr_energy">    -47.16010196 </i>
   <i name="e_wo_entrp">    -47.16010196 </i>
   <i name="e_0_energy">     -0.00000000 </i>
  </energy>
  <time name="totalsc">    2.47    2.48</time>
 </calculation>
 <calculation>
  <scstep>
   <time name="dav">    0.37    0.38</time>
   <time name="total">    0.39    0.40</time>
   <energy>
    <i name="alphaZ">     68.88242450 </i>
    <i name="ewald">   2395.15543746 </i>
    <i name="hartreedc">  -3970.76626732 </i>
    <i name="XCdc">    -56.77619962 </i>
    <i name="pawpsdc">    929.38613860 </i>
    <i name="pawaedc">   -789.76818883 </i>
    <i name="eentropy">     -0.00000000 </i>
    <i name="bandstr">   -150.97305910 </i>
    <i name="atom">   1529.39674839 </i>
    <i name="e_fr_energy">    -45.46296592 </i>
    <i name="e_wo_entrp">    -45.46296592 </i>
    <i name="e_0_energy">    -45.46296592 </i>
   </energy>
  </scstep>
  <scstep>
   <time name="diag">    0.10    0.10</time>
   <time name="diis">    0.18    0.19</time>
   <time name="orth">    0.01    0.01</time>
   <time name="total">    0.32    0.32</time>
   <energy>
    <i name="e_fr_energy">    -45.46493192 </i>
    <i name="e_wo_entrp">    -45.46493192 </i>
    <i name="e_0_energy">    -45.46493192 </i>
   </energy>
  </scstep>
  <scstep>
   <time name="diag">    0.10    0.10</time>
   <time name="diis">    0.21    0.21</time>
   <time name="orth">    0.01    0.01</time>
   <time name="total">    0.34    0.34</time>
   <energy>
    <i name="e_fr_energy">    -45.46490404 </i>
    <i name="e_wo_entrp">    -45.46490404 </i>
    <i name="e_0_energy">    -45.46490404 </i>
   </energy>
  </scstep>
  <scstep>
   <time name="diag">    0.10    0.10</time>
   <time name="diis">    0.19    0.19</time>
   <time name="orth">    0.01    0.01</time>
   <time name="total">    0.32    0.32</time>
   <energy>
    <i name="e_fr_energy">    -45.46484165 </i>
    <i name="e_wo_entrp">    -45.46484165 </i>
    <i name="e_0_energy">    -45.46484165 </i>
   </energy>
  </scstep>
  <scstep>
   <time name="diag">    0.10    0.10</time>
   <time name="diis">    0.19    0.19</time>
   <time name="orth">    0.01    0.01</time>
   <time name="total">    0.33    0.33</time>
   <energy>
    <i name="e_fr_energy">    -45.46483586 </i>
    <i name="e_wo_entrp">    -45.46483586 </i>
    <i name="e_0_energy">    -45.46483586 </i>
   </energy>
  </scstep>
  <scstep>
   <time name="diag">    0.10    0.10</time>
   <time name="diis">    0.18    0.18</time>
   <time name="orth">    0.01    0.01</time>
   <time name="total">    0.32    0.32</time>
   <energy>
    <i name="e_fr_energy">    -45.46483420 </i>
    <i name="e_wo_entrp">    -45.46483420 </i>
    <i name="e_0_energy">    -45.46483420 </i>
   </energy>
  </scstep>
  <scstep>
   <time name="diag">    0.10    0.10</time>
   <time name="diis">    0.16    0.16</time>
   <time name="orth">    0.01    0.01</time>
   <time name="total">    0.27    0.28</time>
   <energy>
    <i name="alphaZ">     68.88242450 </i>
    <i name="ewald">   2395.15543746 </i>
    <i name="hartreedc">  -3970.78459687 </i>
    <i name="XCdc">    -56.77635523 </i>
    <i name="pawpsdc">    932.34042259 </i>
    <i name="pawaedc">   -792.76009347 </i>
    <i name="eentropy">     -0.00000000 </i>
    <i name="bandstr">   -150.91882114 </i>
    <i name="atom">   1529.39674839 </i>
    <i name="e_fr_energy">    -45.46483376 </i>
    <i name="e_wo_entrp">    -45.46483376 </i>
    <i name="e_0_energy">    -45.46483376 </i>
   </energy>
  </scstep>
  <structure>
   <crystal>
    <varray name="basis" >
     <v>       3.18650000       0.00000000       0.00000000 </v>
     <v>      -1.59325000       2.75958995       0.00000000 </v>
     <v>       0.00000000       0.00000000      20.00000000 </v>
    </varray>
    <i name="volume">    175.86866745 </i>
    <varray name="rec_basis" >
     <v>       0.31382394       0.18118634       0.00000000 </v>
     <v>       0.00000000       0.36237268       0.00000000 </v>
     <v>       0.00000000       0.00000000       0.05000000 </v>
    </varray>
   </crystal>
   <varray name="positions" >
    <v>       0.65825925       0.34761941       0.69213087 </v>
    <v>       0.65827392       0.34749077       0.53613388 </v>
    <v>      -0.00163225      -0.00061219       0.38494530 </v>
    <v>      -0.00162955      -0.00081739       0.22931729 </v>
    <v>       0.66554609       0.33287494       0.30690498 </v>
    <v>       0.99177771       0.01405401       0.61378634 </v>
   </varray>
  </structure>
  <varray name="forces" >
   <v>       0.01032113      -0.00632729      -0.02029103 </v>
   <v>       0.01171664      -0.00795456      -0.13895489 </v>
   <v>       0.00819833       0.00947079      -0.03364032 </v>
   <v>       0.01102637       0.00911449      -0.13922626 </v>
   <v>      -0.02666771      -0.01196883       0.15690259 </v>
   <v>      -0.01459476       0.00766541       0.17520992 </v>
  </varray>
  <varray name="stress" >
   <v>       0.45012897       0.05300938       0.32223608 </v>
   <v>       0.05300940       0.73699342      -0.35895844 </v>
   <v>       0.32223611      -0.35895842       2.67612987 </v>
  </varray>
  <energy>
   <i name="e_fr_energy">    -47.16138809 </i>
   <i name="e_wo_entrp">    -47.16138809 </i>
   <i name="e_0_energy">     -0.00000000 </i>
  </energy>
  <time name="totalsc">    2.75    2.76</time>
 </calculation>
 <calculation>
  <scstep>
   <time name="dav">    0.38    0.39</time>
   <time name="total">    0.40    0.41</time>
   <energy>
    <i name="alphaZ">     68.88242450 </i>
    <i name="ewald">   2391.28488814 </i>
    <i name="hartreedc">  -3967.16587510 </i>
    <i name="XCdc">    -56.80290892 </i>
    <i name="pawpsdc">    932.35051441 </i>
    <i name="pawaedc">   -792.77027064 </i>
    <i name="eentropy">     -0.00000000 </i>
    <i name="bandstr">   -150.64153541 </i>
    <i name="atom">   1529.39674839 </i>
    <i name="e_fr_energy">    -45.46601463 </i>
    <i name="e_wo_entrp">    -45.46601463 </i>
    <i name="e_0_energy">    -45.46601463 </i>
   </energy>
  </scstep>
  <scstep>
   <time name="diag">    0.10    0.10</time>
   <time name="diis">    0.19    0.19</time>
   <time name="orth">    0.01    0.01</time>
   <time name="total">    0.32    0.32</time>
   <energy>
    <i name="e_fr_energy">    -45.46632042 </i>
    <i name="e_wo_entrp">    -45.46632042 </i>
    <i name="e_0_energy">    -45.46632042 </i>
   </energy>
  </scstep>
  <scstep>
   <time name="diag">    0.10    0.10</time>
   <time name="diis">    0.21    0.21</time>
   <time name="orth">    0.01    0.01</time>
   <time name="total">    0.34    0.34</time>
   <energy>
    <i name="e_fr_energy">    -45.46631234 </i>
    <i name="e_wo_entrp">    -45.46631234 </i>
    <i name="e_0_energy">    -45.46631234 </i>
   </energy>
  </scstep>
  <scstep>
   <time name="diag">    0.10    0.10</time>
   <time name="diis">    0.19    0.19</time>
   <time name="orth">    0.01    0.01</time>
   <time name="total">    0.32    0.32</time>
   <energy>
    <i name="e_fr_energy">    -45.46629935 </i>
    <i name="e_wo_entrp">    -45.46629935 </i>
    <i name="e_0_energy">    -45.46629935 </i>
   </energy>
  </scstep>
  <scstep>
   <time name="diag">    0.10    0.10</time>
   <time name="diis">    0.18    0.18</time>
   <time name="orth">    0.01    0.01</time>
   <time name="total">    0.32    0.32</time>
   <energy>
    <i name="e_fr_energy">    -45.46629702 </i>
    <i name="e_wo_entrp">    -45.46629702 </i>
    <i name="e_0_energy">    -45.46629702 </i>
   </energy>
  </scstep>
  <scstep>
   <time name="diag">    0.10    0.10</time>
   <time name="diis">    0.13    0.13</time>
   <time name="orth">    0.01    0.01</time>
   <time name="total">    0.25    0.25</time>
   <energy>
    <i name="alphaZ">     68.88242450 </i>
    <i name="ewald">   2391.28488814 </i>
    <i name="hartreedc">  -3967.14804805 </i>
    <i name="XCdc">    -56.80296309 </i>
    <i name="pawpsdc">    931.16652592 </i>
    <i name="pawaedc">   -791.57116822 </i>
    <i name="eentropy">     -0.00000000 </i>
    <i name="bandstr">   -150.67470413 </i>
    <i name="atom">   1529.39674839 </i>
    <i name="e_fr_energy">    -45.46629654 </i>
    <i name="e_wo_entrp">    -45.46629654 </i>
    <i name="e_0_energy">    -45.46629654 </i>
   </energy>
  </scstep>
  <structure>
   <crystal>
    <varray name="basis" >
     <v>       3.18650000       0.00000000       0.00000000 </v>
     <v>      -1.59325000       2.75958995       0.00000000 </v>
     <v>       0.00000000       0.00000000      20.00000000 </v>
    </varray>
    <i name="volume">    175.86866745 </i>
    <varray name="rec_basis" >
     <v>       0.31382394       0.18118634       0.00000000 </v>
     <v>       0.00000000       0.36237268       0.00000000 </v>
     <v>       0.00000000       0.00000000       0.05000000 </v>
    </varray>
   </crystal>
   <varray name="positions" >
    <v>       0.65820375       0.34767254       0.69217870 </v>
    <v>       0.65821577       0.34756991       0.53591904 </v>
    <v>      -0.00164512      -0.00065839       0.38503878 </v>
    <v>      -0.00165780      -0.00083566       0.22907292 </v>
    <v>       0.66560967       0.33288377       0.30708823 </v>
    <v>       0.99186890       0.01397737       0.61392100 </v>
   </varray>
  </structure>
  <varray name="forces" >
   <v>       0.01746319      -0.01019847      -0.00388770 </v>
   <v>       0.01939355      -0.01260561      -0.00905030 </v>
   <v>       0.00972930       0.01109659      -0.02511261 </v>
   <v>       0.01338951       0.00976013       0.00545765 </v>
   <v>      -0.03061687      -0.01401551      -0.00079431 </v>
   <v>      -0.02935869       0.01596287       0.03338727 </v>
  </varray>
  <varray name="stress" >
   <v>      -0.74541280       0.08854211       0.31308228 </v>
   <v>       0.08854211      -0.39349474      -0.34158562 </v>
   <v>       0.31308228      -0.34158562      -0.47650470 </v>
  </varray>
  <energy>
   <i name="e_fr_energy">    -47.16248175 </i>
   <i name="e_wo_entrp">    -47.16248175 </i>
   <i name="e_0_energy">     -0.00000000 </i>
  </energy>
  <time name="totalsc">    2.40    2.41</time>
 </calculation>
 <calculation>
  <scstep>
   <time name="dav">    0.40    0.40</time>
   <time name="total">    0.42    0.42</time>
   <energy>
    <i name="alphaZ">     68.88242450 </i>
    <i name="ewald">   2391.25184505 </i>
    <i name="hartreedc">  -3967.07858930 </i>
    <i name="XCdc">    -56.79835315 </i>
    <i name="pawpsdc">    931.15201128 </i>
    <i name="pawaedc">   -791.55653081 </i>
    <i name="eentropy">     -0.00000000 </i>
    <i name="bandstr">   -150.71602282 </i>
    <i name="atom">   1529.39674839 </i>
    <i name="e_fr_energy">    -45.46646686 </i>
    <i name="e_wo_entrp">    -45.46646686 </i>
    <i name="e_0_energy">    -45.46646686 </i>
   </energy>
  </scstep>
  <scstep>
   <time name="diag">    0.10    0.10</time>
   <time name="diis">    0.19    0.19</time>
   <time name="orth">    0.01    0.01</time>
   <time name="total">    0.32    0.32</time>
   <energy>
    <i name="e_fr_energy">    -45.46650849 </i>
    <i name="e_wo_entrp">    -45.46650849 </i>
    <i name="e_0_energy">    -45.46650849 </i>
   </energy>
  </scstep>
  <scstep>
   <time name="diag">    0.10    0.10</time>
   <time name="diis">    0.21    0.21</time>
   <time name="orth">    0.01    0.01</time>
   <time name="total">    0.34    0.34</time>
   <energy>
    <i name="e_fr_energy">    -45.46650727 </i>
    <i name="e_wo_entrp">    -45.46650727 </i>
    <i name="e_0_energy">    -45.46650727 </i>
   </energy>
  </scstep>
  <scstep>
   <time name="diag">    0.10    0.10</time>
   <time name="diis">    0.18    0.18</time>
   <time name="orth">    0.01    0.01</time>
   <time name="total">    0.31    0.31</time>
   <energy>
    <i name="e_fr_energy">    -45.46650578 </i>
    <i name="e_wo_entrp">    -45.46650578 </i>
    <i name="e_0_energy">    -45.46650578 </i>
   </energy>
  </scstep>
  <scstep>
   <time name="diag">    0.10    0.10</time>
   <time name="diis">    0.13    0.13</time>
   <time name="orth">    0.01    0.01</time>
   <time name="total">    0.25    0.25</time>
   <energy>
    <i name="alphaZ">     68.88242450 </i>
    <i name="ewald">   2391.25184505 </i>
    <i name="hartreedc">  -3967.08013347 </i>
    <i name="XCdc">    -56.79824230 </i>
    <i name="pawpsdc">    931.34169497 </i>
    <i name="pawaedc">   -791.74898273 </i>
    <i name="eentropy">     -0.00000000 </i>
    <i name="bandstr">   -150.71186011 </i>
    <i name="atom">   1529.39674839 </i>
    <i name="e_fr_energy">    -45.46650571 </i>
    <i name="e_wo_entrp">    -45.46650571 </i>
    <i name="e_0_energy">    -45.46650571 </i>
   </energy>
  </scstep>
  <structure>
   <crystal>
    <varray name="basis" >
     <v>       3.18650000       0.00000000       0.00000000 </v>
     <v>      -1.59325000       2.75958995       0.00000000 </v>
     <v>       0.00000000       0.00000000      20.00000000 </v>
    </varray>
    <i name="volume">    175.86866745 </i>
    <varray name="rec_basis" >
     <v>       0.31382394       0.18118634       0.00000000 </v>
     <v>       0.00000000       0.36237268       0.00000000 </v>
     <v>       0.00000000       0.00000000       0.05000000 </v>
    </varray>
   </crystal>
   <varray name="positions" >
    <v>       0.65836496       0.34750881       0.69216636 </v>
    <v>       0.65838451       0.34736642       0.53591731 </v>
    <v>      -0.00142573      -0.00048120       0.38497691 </v>
    <v>      -0.00139806      -0.00068166       0.22910490 </v>
    <v>       0.66508067       0.33266407       0.30707135 </v>
    <v>       0.99158883       0.01423310       0.61398184 </v>
   </varray>
  </structure>
  <varray name="forces" >
   <v>      -0.00425174       0.00183062       0.02041366 </v>
   <v>      -0.00340396       0.00061799       0.00936797 </v>
   <v>      -0.00777929       0.00038251      -0.00685476 </v>
   <v>      -0.00561689      -0.00035917      -0.01352833 </v>
   <v>       0.00584620       0.00717853       0.00081544 </v>
   <v>       0.01520568      -0.00965047      -0.01021399 </v>
  </varray>
  <varray name="stress" >
   <v>      -0.41636590       0.05921832       0.34684646 </v>
   <v>       0.05921834      -0.36034231      -0.36256210 </v>
   <v>       0.34684646      -0.36256211      -0.00521504 </v>
  </varray>
  <energy>
   <i name="e_fr_energy">    -47.16256709 </i>
   <i name="e_wo_entrp">    -47.16256709 </i>
   <i name="e_0_energy">     -0.00000000 </i>
  </energy>
  <time name="totalsc">    2.09    2.10</time>
 </calculation>
 <calculation>
  <scstep>
   <time name="dav">    0.43    0.44</time>
   <time name="total">    0.45    0.46</time>
   <energy>
    <i name="alphaZ">     68.88242450 </i>
    <i name="ewald">   2391.25930584 </i>
    <i name="hartreedc">  -3967.09694968 </i>
    <i name="XCdc">    -56.79928776 </i>
    <i name="pawpsdc">    931.34351509 </i>
    <i name="pawaedc">   -791.75083748 </i>
    <i name="eentropy">     -0.00000000 </i>
    <i name="bandstr">   -150.70140310 </i>
    <i name="atom">   1529.39674839 </i>
    <i name="e_fr_energy">    -45.46648420 </i>
    <i name="e_wo_entrp">    -45.46648420 </i>
    <i name="e_0_energy">    -45.46648420 </i>
   </energy>
  </scstep>
  <scstep>
   <time name="diag">    0.10    0.10</time>
   <time name="diis">    0.18    0.18</time>
   <time name="orth">    0.01    0.01</time>
   <time name="total">    0.32    0.32</time>
   <energy>
    <i name="e_fr_energy">    -45.46648581 </i>
    <i name="e_wo_entrp">    -45.46648581 </i>
    <i name="e_0_energy">    -45.46648581 </i>
   </energy>
  </scstep>
  <scstep>
   <time name="diag">    0.10    0.10</time>
   <time name="diis">    0.13    0.13</time>
   <time name="orth">    0.01    0.01</time>
   <time name="total">    0.26    0.26</time>
   <energy>
    <i name="e_fr_energy">    -45.46648552 </i>
    <i name="e_wo_entrp">    -45.46648552 </i>
    <i name="e_0_energy">    -45.46648552 </i>
   </energy>
  </scstep>
  <scstep>
   <time name="diag">    0.10    0.10</time>
   <time name="diis">    0.12    0.12</time>
   <time name="orth">    0.01    0.01</time>
   <time name="total">    0.24    0.24</time>
   <energy>
    <i name="alphaZ">     68.88242450 </i>
    <i name="ewald">   2391.25930584 </i>
    <i name="hartreedc">  -3967.09452288 </i>
    <i name="XCdc">    -56.79932522 </i>
    <i name="pawpsdc">    931.30009757 </i>
    <i name="pawaedc">   -791.70679604 </i>
    <i name="eentropy">     -0.00000000 </i>
    <i name="bandstr">   -150.70441747 </i>
    <i name="atom">   1529.39674839 </i>
    <i name="e_fr_energy">    -45.46648531 </i>
    <i name="e_wo_entrp">    -45.46648531 </i>
    <i name="e_0_energy">    -45.46648531 </i>
   </energy>
  </scstep>
  <structure>
   <crystal>
    <varray name="basis" >
     <v>       3.18650000       0.00000000       0.00000000 </v>
     <v>      -1.59325000       2.75958995       0.00000000 </v>
     <v>       0.00000000       0.00000000      20.00000000 </v>
    </varray>
    <i name="volume">    175.86866745 </i>
    <varray name="rec_basis" >
     <v>       0.31382394       0.18118634       0.00000000 </v>
     <v>       0.00000000       0.36237268       0.00000000 </v>
     <v>       0.00000000       0.00000000       0.05000000 </v>
    </varray>
   </crystal>
   <varray name="positions" >
    <v>       0.65832808       0.34754626       0.69216918 </v>
    <v>       0.65834591       0.34741297       0.53591770 </v>
    <v>      -0.00147591      -0.00052173       0.38499106 </v>
    <v>      -0.00145747      -0.00071689       0.22909758 </v>
    <v>       0.66520167       0.33271432       0.30707521 </v>
    <v>       0.99165289       0.01417461       0.61396792 </v>
   </varray>
  </structure>
  <varray name="forces" >
   <v>       0.00061431      -0.00072300       0.01490449 </v>
   <v>       0.00165479      -0.00215076       0.00494922 </v>
   <v>      -0.00377061       0.00258937      -0.01071942 </v>
   <v>      -0.00133266       0.00173711      -0.00944925 </v>
   <v>      -0.00231519       0.00227148       0.00035887 </v>
   <v>       0.00514935      -0.00372420      -0.00004392 </v>
  </varray>
  <varray name="stress" >
   <v>      -0.50161781       0.06828857       0.33883532 </v>
   <v>       0.06828857      -0.36707904      -0.35790104 </v>
   <v>       0.33883530      -0.35790107      -0.10368297 </v>
  </varray>
  <energy>
   <i name="e_fr_energy">    -47.16257483 </i>
   <i name="e_wo_entrp">    -47.16257483 </i>
   <i name="e_0_energy">     -0.00000000 </i>
  </energy>
  <time name="totalsc">    1.73    1.73</time>
 </calculation>
 <calculation>
  <scstep>
   <time name="dav">    0.41    0.41</time>
   <time name="total">    0.43    0.43</time>
   <energy>
    <i name="alphaZ">     68.88242450 </i>
    <i name="ewald">   2390.42659374 </i>
    <i name="hartreedc">  -3966.26652367 </i>
    <i name="XCdc">    -56.80003098 </i>
    <i name="pawpsdc">    931.30002036 </i>
    <i name="pawaedc">   -791.70670386 </i>
    <i name="eentropy">     -0.00000000 </i>
    <i name="bandstr">   -150.69911707 </i>
    <i name="atom">   1529.39674839 </i>
    <i name="e_fr_energy">    -45.46658859 </i>
    <i name="e_wo_entrp">    -45.46658859 </i>
    <i name="e_0_energy">    -45.46658859 </i>
   </energy>
  </scstep>
  <scstep>
   <time name="diag">    0.10    0.10</time>
   <time name="diis">    0.19    0.19</time>
   <time name="orth">    0.01    0.01</time>
   <time name="total">    0.32    0.32</time>
   <energy>
    <i name="e_fr_energy">    -45.46659315 </i>
    <i name="e_wo_entrp">    -45.46659315 </i>
    <i name="e_0_energy">    -45.46659315 </i>
   </energy>
  </scstep>
  <scstep>
   <time name="diag">    0.10    0.10</time>
   <time name="diis">    0.13    0.13</time>
   <time name="orth">    0.01    0.01</time>
   <time name="total">    0.26    0.26</time>
   <energy>
    <i name="e_fr_energy">    -45.46659312 </i>
    <i name="e_wo_entrp">    -45.46659312 </i>
    <i name="e_0_energy">    -45.46659312 </i>
   </energy>
  </scstep>
  <scstep>
   <time name="diag">    0.10    0.10</time>
   <time name="diis">    0.13    0.13</time>
   <time name="orth">    0.01    0.01</time>
   <time name="total">    0.24    0.24</time>
   <energy>
    <i name="alphaZ">     68.88242450 </i>
    <i name="ewald">   2390.42659374 </i>
    <i name="hartreedc">  -3966.26738897 </i>
    <i name="XCdc">    -56.79997809 </i>
    <i name="pawpsdc">    931.28089029 </i>
    <i name="pawaedc">   -791.68747782 </i>
    <i name="eentropy">     -0.00000000 </i>
    <i name="bandstr">   -150.69840500 </i>
    <i name="atom">   1529.39674839 </i>
    <i name="e_fr_energy">    -45.46659295 </i>
    <i name="e_wo_entrp">    -45.46659295 </i>
    <i name="e_0_energy">    -45.46659295 </i>
   </energy>
  </scstep>
  <structure>
   <crystal>
    <varray name="basis" >
     <v>       3.18650000       0.00000000       0.00000000 </v>
     <v>      -1.59325000       2.75958995       0.00000000 </v>
     <v>       0.00000000       0.00000000      20.00000000 </v>
    </varray>
    <i name="volume">    175.86866745 </i>
    <varray name="rec_basis" >
     <v>       0.31382394       0.18118634       0.00000000 </v>
     <v>       0.00000000       0.36237268       0.00000000 </v>
     <v>       0.00000000       0.00000000       0.05000000 </v>
    </varray>
   </crystal>
   <varray name="positions" >
    <v>       0.65834517       0.34752071       0.69219873 </v>
    <v>       0.65836647       0.34736254       0.53592773 </v>
    <v>      -0.00148550      -0.00046713       0.38496342 </v>
    <v>      -0.00143829      -0.00067709       0.22908103 </v>
    <v>       0.66514097       0.33272836       0.30707443 </v>
    <v>       0.99166634       0.01414217       0.61397332 </v>
   </varray>
  </structure>
  <varray name="forces" >
   <v>       0.00057824      -0.00101194       0.00668129 </v>
   <v>       0.00116701      -0.00177380       0.00412716 </v>
   <v>      -0.00478705       0.00162031      -0.00231147 </v>
   <v>      -0.00335164       0.00115151      -0.00539524 </v>
   <v>       0.00075612       0.00411315      -0.01241212 </v>
   <v>       0.00563731      -0.00409923       0.00931038 </v>
  </varray>
  <varray name="stress" >
   <v>      -0.51260525       0.07450715       0.35913787 </v>
   <v>       0.07450715      -0.39509853      -0.37094467 </v>
   <v>       0.35913789      -0.37094468      -0.17694033 </v>
  </varray>
  <energy>
   <i name="e_fr_energy">    -47.16259106 </i>
   <i name="e_wo_entrp">    -47.16259106 </i>
   <i name="e_0_energy">     -0.00000000 </i>
  </energy>
  <time name="totalsc">    1.71    1.72</time>
 </calculation>
 <calculation>
  <scstep>
   <time name="dav">    0.41    0.41</time>
   <time name="total">    0.43    0.43</time>
   <energy>
    <i name="alphaZ">     68.88242450 </i>
    <i name="ewald">   2389.52172630 </i>
    <i name="hartreedc">  -3965.36807397 </i>
    <i name="XCdc">    -56.80069442 </i>
    <i name="pawpsdc">    931.27962473 </i>
    <i name="pawaedc">   -791.68620657 </i>
    <i name="eentropy">     -0.00000000 </i>
    <i name="bandstr">   -150.69224091 </i>
    <i name="atom">   1529.39674839 </i>
    <i name="e_fr_energy">    -45.46669195 </i>
    <i name="e_wo_entrp">    -45.46669195 </i>
    <i name="e_0_energy">    -45.46669195 </i>
   </energy>
  </scstep>
  <scstep>
   <time name="diag">    0.10    0.10</time>
   <time name="diis">    0.19    0.19</time>
   <time name="orth">    0.01    0.01</time>
   <time name="total">    0.32    0.32</time>
   <energy>
    <i name="e_fr_energy">    -45.46669746 </i>
    <i name="e_wo_entrp">    -45.46669746 </i>
    <i name="e_0_energy">    -45.46669746 </i>
   </energy>
  </scstep>
  <scstep>
   <time name="diag">    0.10    0.10</time>
   <time name="diis">    0.14    0.14</time>
   <time name="orth">    0.01    0.01</time>
   <time name="total">    0.27    0.27</time>
   <energy>
    <i name="e_fr_energy">    -45.46669747 </i>
    <i name="e_wo_entrp">    -45.46669747 </i>
    <i name="e_0_energy">    -45.46669747 </i>
   </energy>
  </scstep>
  <scstep>
   <time name="diag">    0.10    0.10</time>
   <time name="diis">    0.13    0.13</time>
   <time name="orth">    0.01    0.01</time>
   <time name="total">    0.24    0.24</time>
   <energy>
    <i name="alphaZ">     68.88242450 </i>
    <i name="ewald">   2389.52172630 </i>
    <i name="hartreedc">  -3965.36957397 </i>
    <i name="XCdc">    -56.80065086 </i>
    <i name="pawpsdc">    931.25915788 </i>
    <i name="pawaedc">   -791.66563941 </i>
    <i name="eentropy">     -0.00000000 </i>
    <i name="bandstr">   -150.69089009 </i>
    <i name="atom">   1529.39674839 </i>
    <i name="e_fr_energy">    -45.46669727 </i>
    <i name="e_wo_entrp">    -45.46669727 </i>
    <i name="e_0_energy">    -45.46669727 </i>
   </energy>
  </scstep>
  <structure>
   <crystal>
    <varray name="basis" >
     <v>       3.18650000       0.00000000       0.00000000 </v>
     <v>      -1.59325000       2.75958995       0.00000000 </v>
     <v>       0.00000000       0.00000000      20.00000000 </v>
    </varray>
    <i name="volume">    175.86866745 </i>
    <varray name="rec_basis" >
     <v>       0.31382394       0.18118634       0.00000000 </v>
     <v>       0.00000000       0.36237268       0.00000000 </v>
     <v>       0.00000000       0.00000000       0.05000000 </v>
    </varray>
   </crystal>
   <varray name="positions" >
    <v>       0.65836375       0.34749293       0.69223084 </v>
    <v>       0.65838882       0.34730773       0.53593862 </v>
    <v>      -0.00149591      -0.00040780       0.38493339 </v>
    <v>      -0.00141744      -0.00063384       0.22906304 </v>
    <v>       0.66507499       0.33274361       0.30707358 </v>
    <v>       0.99168095       0.01410691       0.61397919 </v>
   </varray>
  </structure>
  <varray name="forces" >
   <v>       0.00048353      -0.00118635      -0.00254934 </v>
   <v>       0.00052941      -0.00115606       0.00290915 </v>
   <v>      -0.00586031       0.00035933       0.00739955 </v>
   <v>      -0.00560906       0.00034578      -0.00082050 </v>
   <v>       0.00420502       0.00608601      -0.02633298 </v>
   <v>       0.00625140      -0.00444871       0.01939412 </v>
  </varray>
  <varray name="stress" >
   <v>      -0.52732703       0.08225434       0.38095229 </v>
   <v>       0.08225434      -0.42496399      -0.38516215 </v>
   <v>       0.38095228      -0.38516216      -0.24841290 </v>
  </varray>
  <energy>
   <i name="e_fr_energy">    -47.16259594 </i>
   <i name="e_wo_entrp">    -47.16259594 </i>
   <i name="e_0_energy">     -0.00000000 </i>
  </energy>
  <time name="totalsc">    1.72    1.72</time>
 </calculation>
 <calculation>
  <scstep>
   <time name="dav">    0.40    0.40</time>
   <time name="total">    0.42    0.43</time>
   <energy>
    <i name="alphaZ">     68.88242450 </i>
    <i name="ewald">   2389.11135774 </i>
    <i name="hartreedc">  -3964.96194360 </i>
    <i name="XCdc">    -56.80090727 </i>
    <i name="pawpsdc">    931.25762325 </i>
    <i name="pawaedc">   -791.66409831 </i>
    <i name="eentropy">     -0.00000000 </i>
    <i name="bandstr">   -150.68795941 </i>
    <i name="atom">   1529.39674839 </i>
    <i name="e_fr_energy">    -45.46675471 </i>
    <i name="e_wo_entrp">    -45.46675471 </i>
    <i name="e_0_energy">    -45.46675471 </i>
   </energy>
  </scstep>
  <scstep>
   <time name="diag">    0.10    0.10</time>
   <time name="diis">    0.18    0.18</time>
   <time name="orth">    0.01    0.01</time>
   <time name="total">    0.31    0.32</time>
   <energy>
    <i name="e_fr_energy">    -45.46675534 </i>
    <i name="e_wo_entrp">    -45.46675534 </i>
    <i name="e_0_energy">    -45.46675534 </i>
   </energy>
  </scstep>
  <scstep>
   <time name="diag">    0.10    0.10</time>
   <time name="diis">    0.12    0.12</time>
   <time name="orth">    0.01    0.01</time>
   <time name="total">    0.26    0.26</time>
   <energy>
    <i name="e_fr_energy">    -45.46675530 </i>
    <i name="e_wo_entrp">    -45.46675530 </i>
    <i name="e_0_energy">    -45.46675530 </i>
   </energy>
  </scstep>
  <scstep>
   <time name="diag">    0.10    0.10</time>
   <time name="diis">    0.12    0.12</time>
   <time name="orth">    0.01    0.01</time>
   <time name="total">    0.24    0.24</time>
   <energy>
    <i name="alphaZ">     68.88242450 </i>
    <i name="ewald">   2389.11135774 </i>
    <i name="hartreedc">  -3964.96315071 </i>
    <i name="XCdc">    -56.80088318 </i>
    <i name="pawpsdc">    931.24939422 </i>
    <i name="pawaedc">   -791.65580108 </i>
    <i name="eentropy">     -0.00000000 </i>
    <i name="bandstr">   -150.68684514 </i>
    <i name="atom">   1529.39674839 </i>
    <i name="e_fr_energy">    -45.46675526 </i>
    <i name="e_wo_entrp">    -45.46675526 </i>
    <i name="e_0_energy">    -45.46675526 </i>
   </energy>
  </scstep>
  <structure>
   <crystal>
    <varray name="basis" >
     <v>       3.18650000       0.00000000       0.00000000 </v>
     <v>      -1.59325000       2.75958995       0.00000000 </v>
     <v>       0.00000000       0.00000000      20.00000000 </v>
    </varray>
    <i name="volume">    175.86866745 </i>
    <varray name="rec_basis" >
     <v>       0.31382394       0.18118634       0.00000000 </v>
     <v>       0.00000000       0.36237268       0.00000000 </v>
     <v>       0.00000000       0.00000000       0.05000000 </v>
    </varray>
   </crystal>
   <varray name="positions" >
    <v>       0.65836959       0.34748106       0.69224083 </v>
    <v>       0.65839604       0.34728688       0.53594314 </v>
    <v>      -0.00151001      -0.00038716       0.38492555 </v>
    <v>      -0.00142062      -0.00061862       0.22905678 </v>
    <v>       0.66506741       0.33276192       0.30706541 </v>
    <v>       0.99169276       0.01408546       0.61398696 </v>
   </varray>
  </structure>
  <varray name="forces" >
   <v>       0.00080895      -0.00142040      -0.00387003 </v>
   <v>       0.00063055      -0.00108509       0.00372795 </v>
   <v>      -0.00554953       0.00020254       0.00792759 </v>
   <v>      -0.00578530       0.00037343      -0.00110279 </v>
   <v>       0.00418491       0.00604041      -0.02559640 </v>
   <v>       0.00571042      -0.00411089       0.01891368 </v>
  </varray>
  <varray name="stress" >
   <v>      -0.53735233       0.08382593       0.38838386 </v>
   <v>       0.08382589      -0.43239584      -0.38974399 </v>
   <v>       0.38838389      -0.38974397      -0.27297523 </v>
  </varray>
  <energy>
   <i name="e_fr_energy">    -47.16260317 </i>
   <i name="e_wo_entrp">    -47.16260317 </i>
   <i name="e_0_energy">     -0.00000000 </i>
  </energy>
  <time name="totalsc">    1.69    1.70</time>
 </calculation>
 <calculation>
  <scstep>
   <time name="dav">    0.39    0.39</time>
   <time name="total">    0.41    0.41</time>
   <energy>
    <i name="alphaZ">     68.88242450 </i>
    <i name="ewald">   2387.88043517 </i>
    <i name="hartreedc">  -3963.73888416 </i>
    <i name="XCdc">    -56.80172456 </i>
    <i name="pawpsdc">    931.24888030 </i>
    <i name="pawaedc">   -791.65528306 </i>
    <i name="eentropy">     -0.00000000 </i>
    <i name="bandstr">   -150.67951922 </i>
    <i name="atom">   1529.39674839 </i>
    <i name="e_fr_energy">    -45.46692264 </i>
    <i name="e_wo_entrp">    -45.46692264 </i>
    <i name="e_0_energy">    -45.46692264 </i>
   </energy>
  </scstep>
  <scstep>
   <time name="diag">    0.10    0.10</time>
   <time name="diis">    0.19    0.19</time>
   <time name="orth">    0.01    0.01</time>
   <time name="total">    0.32    0.32</time>
   <energy>
    <i name="e_fr_energy">    -45.46692842 </i>
    <i name="e_wo_entrp">    -45.46692842 </i>
    <i name="e_0_energy">    -45.46692842 </i>
   </energy>
  </scstep>
  <scstep>
   <time name="diag">    0.10    0.10</time>
   <time name="diis">    0.14    0.14</time>
   <time name="orth">    0.01    0.01</time>
   <time name="total">    0.27    0.27</time>
   <energy>
    <i name="e_fr_energy">    -45.46692813 </i>
    <i name="e_wo_entrp">    -45.46692813 </i>
    <i name="e_0_energy">    -45.46692813 </i>
   </energy>
  </scstep>
  <scstep>
   <time name="diag">    0.10    0.10</time>
   <time name="diis">    0.12    0.12</time>
   <time name="orth">    0.01    0.01</time>
   <time name="total">    0.24    0.24</time>
   <energy>
    <i name="alphaZ">     68.88242450 </i>
    <i name="ewald">   2387.88043517 </i>
    <i name="hartreedc">  -3963.73598630 </i>
    <i name="XCdc">    -56.80166810 </i>
    <i name="pawpsdc">    931.22454475 </i>
    <i name="pawaedc">   -791.63074629 </i>
    <i name="eentropy">     -0.00000000 </i>
    <i name="bandstr">   -150.68267997 </i>
    <i name="atom">   1529.39674839 </i>
    <i name="e_fr_energy">    -45.46692785 </i>
    <i name="e_wo_entrp">    -45.46692785 </i>
    <i name="e_0_energy">    -45.46692785 </i>
   </energy>
  </scstep>
  <structure>
   <crystal>
    <varray name="basis" >
     <v>       3.18650000       0.00000000       0.00000000 </v>
     <v>      -1.59325000       2.75958995       0.00000000 </v>
     <v>       0.00000000       0.00000000      20.00000000 </v>
    </varray>
    <i name="volume">    175.86866745 </i>
    <varray name="rec_basis" >
     <v>       0.31382394       0.18118634       0.00000000 </v>
     <v>       0.00000000       0.36237268       0.00000000 </v>
     <v>       0.00000000       0.00000000       0.05000000 </v>
    </varray>
   </crystal>
   <varray name="positions" >
    <v>       0.65838710       0.34744546       0.69227078 </v>
    <v>       0.65841770       0.34722433       0.53595669 </v>
    <v>      -0.00155232      -0.00032524       0.38490204 </v>
    <v>      -0.00143016      -0.00057294       0.22903798 </v>
    <v>       0.66504466       0.33281683       0.30704091 </v>
    <v>       0.99172818       0.01402111       0.61401026 </v>
   </varray>
  </structure>
  <varray name="forces" >
   <v>       0.00185574      -0.00224894      -0.00625128 </v>
   <v>       0.00114750      -0.00116269       0.00732788 </v>
   <v>      -0.00486270       0.00002609       0.00790532 </v>
   <v>      -0.00629222       0.00064190      -0.00338289 </v>
   <v>       0.00403961       0.00594925      -0.02362221 </v>
   <v>       0.00411208      -0.00320561       0.01802319 </v>
  </varray>
  <varray name="stress" >
   <v>      -0.56645499       0.08708310       0.41051814 </v>
   <v>       0.08708308      -0.45719712      -0.40355685 </v>
   <v>       0.41051816      -0.40355686      -0.35726657 </v>
  </varray>
  <energy>
   <i name="e_fr_energy">    -47.16262345 </i>
   <i name="e_wo_entrp">    -47.16262345 </i>
   <i name="e_0_energy">     -0.00000000 </i>
  </energy>
  <time name="totalsc">    1.69    1.70</time>
 </calculation>
 <calculation>
  <scstep>
   <time name="dav">    0.38    0.38</time>
   <time name="total">    0.40    0.40</time>
   <energy>
    <i name="alphaZ">     68.88242450 </i>
    <i name="ewald">   2385.41941472 </i>
    <i name="hartreedc">  -3961.28855181 </i>
    <i name="XCdc">    -56.80334849 </i>
    <i name="pawpsdc">    931.22337472 </i>
    <i name="pawaedc">   -791.62956780 </i>
    <i name="eentropy">     -0.00000000 </i>
    <i name="bandstr">   -150.66773883 </i>
    <i name="atom">   1529.39674839 </i>
    <i name="e_fr_energy">    -45.46724459 </i>
    <i name="e_wo_entrp">    -45.46724459 </i>
[...]
       <r>   -2.9390    1.0000 </r>
       <r>   -2.3302    1.0000 </r>
       <r>   -2.2049    1.0000 </r>
       <r>   -0.9527    1.0000 </r>
       <r>   -0.8870    1.0000 </r>
       <r>   -0.7600    1.0000 </r>
       <r>   -0.6886    1.0000 </r>
       <r>    0.2655    1.0000 </r>
       <r>    0.3320    1.0000 </r>
       <r>    3.1037    0.0000 </r>
       <r>    3.4733    0.0000 </r>
       <r>    3.7448    0.0000 </r>
       <r>    4.1632    0.0000 </r>
       <r>    4.5082    0.0000 </r>
       <r>    5.0708    0.0000 </r>
      </set>
      <set comment="kpoint 59">
       <r>  -11.8157    1.0000 </r>
       <r>  -11.5563    1.0000 </r>
       <r>  -11.3243    1.0000 </r>
       <r>  -11.1591    1.0000 </r>
       <r>   -4.6364    1.0000 </r>
       <r>   -4.2575    1.0000 </r>
       <r>   -3.8479    1.0000 </r>
       <r>   -3.7041    1.0000 </r>
       <r>   -3.2194    1.0000 </r>
       <r>   -2.8190    1.0000 </r>
       <r>   -2.5100    1.0000 </r>
       <r>   -2.2125    1.0000 </r>
       <r>   -1.7325    1.0000 </r>
       <r>   -1.5021    1.0000 </r>
       <r>   -0.6723    1.0000 </r>
       <r>   -0.5447    1.0000 </r>
       <r>    0.2666    1.0000 </r>
       <r>    0.3632    1.0000 </r>
       <r>    3.0186    0.0000 </r>
       <r>    3.4586    0.0000 </r>
       <r>    3.5750    0.0000 </r>
       <r>    4.0057    0.0000 </r>
       <r>    4.1916    0.0000 </r>
       <r>    4.6497    0.0000 </r>
      </set>
      <set comment="kpoint 60">
       <r>  -11.8153    1.0000 </r>
       <r>  -11.5562    1.0000 </r>
       <r>  -11.3243    1.0000 </r>
       <r>  -11.1596    1.0000 </r>
       <r>   -4.6367    1.0000 </r>
       <r>   -4.2586    1.0000 </r>
       <r>   -3.8477    1.0000 </r>
       <r>   -3.7055    1.0000 </r>
       <r>   -3.2093    1.0000 </r>
       <r>   -2.8247    1.0000 </r>
       <r>   -2.5094    1.0000 </r>
       <r>   -2.2149    1.0000 </r>
       <r>   -1.7328    1.0000 </r>
       <r>   -1.5017    1.0000 </r>
       <r>   -0.6871    1.0000 </r>
       <r>   -0.5311    1.0000 </r>
       <r>    0.2665    1.0000 </r>
       <r>    0.3640    1.0000 </r>
       <r>    3.0187    0.0000 </r>
       <r>    3.4589    0.0000 </r>
       <r>    3.5755    0.0000 </r>
       <r>    4.0067    0.0000 </r>
       <r>    4.1907    0.0000 </r>
       <r>    4.6489    0.0000 </r>
      </set>
      <set comment="kpoint 61">
       <r>  -11.7453    1.0000 </r>
       <r>  -11.4976    1.0000 </r>
       <r>  -11.3093    1.0000 </r>
       <r>  -11.1488    1.0000 </r>
       <r>   -5.0306    1.0000 </r>
       <r>   -4.5535    1.0000 </r>
       <r>   -3.9311    1.0000 </r>
       <r>   -3.7677    1.0000 </r>
       <r>   -3.3116    1.0000 </r>
       <r>   -2.9449    1.0000 </r>
       <r>   -2.3279    1.0000 </r>
       <r>   -2.2057    1.0000 </r>
       <r>   -0.9803    1.0000 </r>
       <r>   -0.8951    1.0000 </r>
       <r>   -0.7446    1.0000 </r>
       <r>   -0.6759    1.0000 </r>
       <r>    0.2614    1.0000 </r>
       <r>    0.3381    1.0000 </r>
       <r>    3.1030    0.0000 </r>
       <r>    3.4748    0.0000 </r>
       <r>    3.7443    0.0000 </r>
       <r>    4.1644    0.0000 </r>
       <r>    4.5051    0.0000 </r>
       <r>    5.0689    0.0000 </r>
      </set>
     </set>
    </set>
   </array>
  </eigenvalues>
  <separator name="orbital magnetization" >
   <v name="MAGDIPOLOUT">      0.00000000      0.00000000      0.00000000</v>
  </separator>
  <dos>
   <i name="efermi">      1.92721943 </i>
   <total>
    <array>
     <dimension dim="1">gridpoints</dimension>
     <dimension dim="2">spin</dimension>
     <field>energy</field>
     <field>total</field>
     <field>integrated</field>
     <set>
      <set comment="spin 1">
       <r>   -14.6459     0.0000     0.0000 </r>
       <r>   -14.5766     0.0000     0.0000 </r>
       <r>   -14.5073     0.0000     0.0000 </r>
       <r>   -14.4379     0.0000     0.0000 </r>
       <r>   -14.3686     0.0000     0.0000 </r>
       <r>   -14.2992     0.0000     0.0000 </r>
       <r>   -14.2299     0.0000     0.0000 </r>
       <r>   -14.1605     0.0000     0.0000 </r>
       <r>   -14.0912     0.0000     0.0000 </r>
       <r>   -14.0219     0.0000     0.0000 </r>
       <r>   -13.9525     0.0000     0.0000 </r>
       <r>   -13.8832     0.0001     0.0000 </r>
       <r>   -13.8138     0.0020     0.0001 </r>
       <r>   -13.7445     0.0182     0.0014 </r>
       <r>   -13.6751     0.0778     0.0068 </r>
       <r>   -13.6058     0.2166     0.0218 </r>
       <r>   -13.5365     0.4581     0.0536 </r>
       <r>   -13.4671     0.5447     0.0914 </r>
       <r>   -13.3978     0.3269     0.1140 </r>
       <r>   -13.3284     0.2950     0.1345 </r>
       <r>   -13.2591     0.5938     0.1757 </r>
       <r>   -13.1897     0.8444     0.2342 </r>
       <r>   -13.1204     0.9469     0.2999 </r>
       <r>   -13.0511     0.9027     0.3625 </r>
       <r>   -12.9817     0.6810     0.4097 </r>
       <r>   -12.9124     0.5743     0.4495 </r>
       <r>   -12.8430     1.1815     0.5314 </r>
       <r>   -12.7737     1.8517     0.6598 </r>
       <r>   -12.7043     1.5955     0.7705 </r>
       <r>   -12.6350     1.0925     0.8462 </r>
       <r>   -12.5657     0.7783     0.9002 </r>
       <r>   -12.4963     0.6553     0.9456 </r>
       <r>   -12.4270     1.0696     1.0198 </r>
       <r>   -12.3576     1.6021     1.1309 </r>
       <r>   -12.2883     1.9485     1.2660 </r>
       <r>   -12.2189     2.0643     1.4092 </r>
       <r>   -12.1496     1.4920     1.5126 </r>
       <r>   -12.0803     1.3157     1.6039 </r>
       <r>   -12.0109     2.1391     1.7522 </r>
       <r>   -11.9416     3.0565     1.9641 </r>
       <r>   -11.8722     3.6187     2.2151 </r>
       <r>   -11.8029     4.3104     2.5140 </r>
       <r>   -11.7335     5.1865     2.8736 </r>
       <r>   -11.6642     5.0207     3.2217 </r>
       <r>   -11.5949     4.9466     3.5648 </r>
       <r>   -11.5255     6.7210     4.0308 </r>
       <r>   -11.4562     7.7922     4.5711 </r>
       <r>   -11.3868     7.1458     5.0666 </r>
       <r>   -11.3175     7.8153     5.6086 </r>
       <r>   -11.2482     8.6974     6.2117 </r>
       <r>   -11.1788     8.1506     6.7769 </r>
       <r>   -11.1095     7.1497     7.2726 </r>
       <r>   -11.0401     5.2917     7.6396 </r>
       <r>   -10.9708     3.1957     7.8612 </r>
       <r>   -10.9014     1.4873     7.9643 </r>
       <r>   -10.8321     0.4397     7.9948 </r>
       <r>   -10.7628     0.0696     7.9996 </r>
       <r>   -10.6934     0.0052     8.0000 </r>
       <r>   -10.6241     0.0002     8.0000 </r>
       <r>   -10.5547     0.0000     8.0000 </r>
       <r>   -10.4854     0.0000     8.0000 </r>
       <r>   -10.4160     0.0000     8.0000 </r>
       <r>   -10.3467     0.0000     8.0000 </r>
       <r>   -10.2774     0.0000     8.0000 </r>
       <r>   -10.2080     0.0000     8.0000 </r>
       <r>   -10.1387     0.0000     8.0000 </r>
       <r>   -10.0693     0.0000     8.0000 </r>
       <r>   -10.0000     0.0000     8.0000 </r>
       <r>    -9.9306     0.0000     8.0000 </r>
       <r>    -9.8613     0.0000     8.0000 </r>
       <r>    -9.7920     0.0000     8.0000 </r>
       <r>    -9.7226     0.0000     8.0000 </r>
       <r>    -9.6533     0.0000     8.0000 </r>
       <r>    -9.5839     0.0000     8.0000 </r>
       <r>    -9.5146     0.0000     8.0000 </r>
       <r>    -9.4452     0.0000     8.0000 </r>
       <r>    -9.3759     0.0000     8.0000 </r>
       <r>    -9.3066     0.0000     8.0000 </r>
       <r>    -9.2372     0.0000     8.0000 </r>
       <r>    -9.1679     0.0000     8.0000 </r>
       <r>    -9.0985     0.0000     8.0000 </r>
       <r>    -9.0292     0.0000     8.0000 </r>
       <r>    -8.9598     0.0000     8.0000 </r>
       <r>    -8.8905     0.0000     8.0000 </r>
       <r>    -8.8212     0.0000     8.0000 </r>
       <r>    -8.7518     0.0000     8.0000 </r>
       <r>    -8.6825     0.0000     8.0000 </r>
       <r>    -8.6131     0.0000     8.0000 </r>
       <r>    -8.5438     0.0000     8.0000 </r>
       <r>    -8.4744     0.0000     8.0000 </r>
       <r>    -8.4051     0.0000     8.0000 </r>
       <r>    -8.3358     0.0000     8.0000 </r>
       <r>    -8.2664     0.0000     8.0000 </r>
       <r>    -8.1971     0.0000     8.0000 </r>
       <r>    -8.1277     0.0000     8.0000 </r>
       <r>    -8.0584     0.0000     8.0000 </r>
       <r>    -7.9890     0.0000     8.0000 </r>
       <r>    -7.9197     0.0000     8.0000 </r>
       <r>    -7.8504     0.0000     8.0000 </r>
       <r>    -7.7810     0.0000     8.0000 </r>
       <r>    -7.7117     0.0000     8.0000 </r>
       <r>    -7.6423     0.0000     8.0000 </r>
       <r>    -7.5730     0.0000     8.0000 </r>
       <r>    -7.5036     0.0000     8.0000 </r>
       <r>    -7.4343     0.0000     8.0000 </r>
       <r>    -7.3650     0.0000     8.0000 </r>
       <r>    -7.2956     0.0000     8.0000 </r>
       <r>    -7.2263     0.0000     8.0000 </r>
       <r>    -7.1569     0.0000     8.0000 </r>
       <r>    -7.0876     0.0000     8.0000 </r>
       <r>    -7.0183     0.0000     8.0000 </r>
       <r>    -6.9489     0.0000     8.0000 </r>
       <r>    -6.8796     0.0000     8.0000 </r>
       <r>    -6.8102     0.0000     8.0000 </r>
       <r>    -6.7409     0.0000     8.0000 </r>
       <r>    -6.6715     0.0000     8.0000 </r>
       <r>    -6.6022     0.0000     8.0000 </r>
       <r>    -6.5329     0.0000     8.0000 </r>
       <r>    -6.4635     0.0000     8.0000 </r>
       <r>    -6.3942     0.0000     8.0000 </r>
       <r>    -6.3248     0.0000     8.0000 </r>
       <r>    -6.2555     0.0000     8.0000 </r>
       <r>    -6.1861     0.0000     8.0000 </r>
       <r>    -6.1168     0.0000     8.0000 </r>
       <r>    -6.0475     0.0000     8.0000 </r>
       <r>    -5.9781     0.0000     8.0000 </r>
       <r>    -5.9088     0.0000     8.0000 </r>
       <r>    -5.8394     0.0000     8.0000 </r>
       <r>    -5.7701     0.0000     8.0000 </r>
       <r>    -5.7007     0.0000     8.0000 </r>
       <r>    -5.6314     0.0000     8.0000 </r>
       <r>    -5.5621     0.0005     8.0000 </r>
       <r>    -5.4927     0.0111     8.0008 </r>
       <r>    -5.4234     0.1078     8.0083 </r>
       <r>    -5.3540     0.4795     8.0415 </r>
       <r>    -5.2847     1.0715     8.1158 </r>
       <r>    -5.2153     1.3608     8.2102 </r>
       <r>    -5.1460     1.1412     8.2893 </r>
       <r>    -5.0767     1.0189     8.3600 </r>
       <r>    -5.0073     1.3525     8.4538 </r>
       <r>    -4.9380     1.8148     8.5796 </r>
       <r>    -4.8686     2.5439     8.7560 </r>
       <r>    -4.7993     2.7988     8.9501 </r>
       <r>    -4.7299     2.4233     9.1181 </r>
       <r>    -4.6606     2.6113     9.2992 </r>
       <r>    -4.5913     4.0005     9.5766 </r>
       <r>    -4.5219     5.5748     9.9632 </r>
       <r>    -4.4526     6.0662    10.3838 </r>
       <r>    -4.3832     5.7043    10.7794 </r>
       <r>    -4.3139     5.1334    11.1354 </r>
       <r>    -4.2445     5.0944    11.4886 </r>
       <r>    -4.1752     5.5106    11.8707 </r>
       <r>    -4.1059     5.3505    12.2417 </r>
       <r>    -4.0365     4.6435    12.5637 </r>
       <r>    -3.9672     4.4583    12.8729 </r>
       <r>    -3.8978     4.5373    13.1875 </r>
       <r>    -3.8285     4.0979    13.4717 </r>
       <r>    -3.7591     3.5444    13.7175 </r>
       <r>    -3.6898     2.9719    13.9235 </r>
       <r>    -3.6205     2.0429    14.0652 </r>
       <r>    -3.5511     1.9303    14.1990 </r>
       <r>    -3.4818     2.8966    14.3999 </r>
       <r>    -3.4124     3.5845    14.6485 </r>
       <r>    -3.3431     4.9643    14.9927 </r>
       <r>    -3.2737     6.2274    15.4245 </r>
       <r>    -3.2044     5.4109    15.7997 </r>
       <r>    -3.1351     4.1791    16.0895 </r>
       <r>    -3.0657     4.3176    16.3889 </r>
       <r>    -2.9964     5.2956    16.7561 </r>
       <r>    -2.9270     6.6770    17.2191 </r>
       <r>    -2.8577     7.5430    17.7422 </r>
       <r>    -2.7884     6.0348    18.1606 </r>
       <r>    -2.7190     3.7207    18.4186 </r>
       <r>    -2.6497     3.2438    18.6436 </r>
       <r>    -2.5803     3.9250    18.9157 </r>
       <r>    -2.5110     4.2458    19.2102 </r>
       <r>    -2.4416     4.1517    19.4981 </r>
       <r>    -2.3723     5.2652    19.8632 </r>
       <r>    -2.3030     7.1638    20.3599 </r>
       <r>    -2.2336     8.4174    20.9436 </r>
       <r>    -2.1643     8.5667    21.5376 </r>
       <r>    -2.0949     7.0119    22.0239 </r>
       <r>    -2.0256     5.2819    22.3901 </r>
       <r>    -1.9562     4.1446    22.6775 </r>
       <r>    -1.8869     3.7771    22.9394 </r>
       <r>    -1.8176     3.8723    23.2079 </r>
       <r>    -1.7482     4.4135    23.5140 </r>
       <r>    -1.6789     4.9351    23.8562 </r>
       <r>    -1.6095     4.5240    24.1699 </r>
       <r>    -1.5402     3.6296    24.4216 </r>
       <r>    -1.4708     2.6339    24.6042 </r>
       <r>    -1.4015     2.0448    24.7460 </r>
       <r>    -1.3322     2.3901    24.9118 </r>
       <r>    -1.2628     3.7197    25.1697 </r>
       <r>    -1.1935     5.0915    25.5228 </r>
       <r>    -1.1241     5.7466    25.9212 </r>
       <r>    -1.0548     6.7780    26.3913 </r>
       <r>    -0.9854     7.6284    26.9202 </r>
       <r>    -0.9161     7.4533    27.4371 </r>
       <r>    -0.8468     7.6983    27.9709 </r>
       <r>    -0.7774     7.9297    28.5207 </r>
       <r>    -0.7081     7.4501    29.0374 </r>
       <r>    -0.6387     6.3679    29.4789 </r>
       <r>    -0.5694     4.7892    29.8110 </r>
       <r>    -0.5000     3.6330    30.0629 </r>
       <r>    -0.4307     3.7143    30.3205 </r>
       <r>    -0.3614     4.5400    30.6353 </r>
       <r>    -0.2920     4.6155    30.9554 </r>
       <r>    -0.2227     3.6943    31.2115 </r>
       <r>    -0.1533     2.6428    31.3948 </r>
       <r>    -0.0840     2.5551    31.5720 </r>
       <r>    -0.0146     3.7546    31.8323 </r>
       <r>     0.0547     5.1803    32.1916 </r>
       <r>     0.1240     5.7848    32.5927 </r>
       <r>     0.1934     5.7441    32.9910 </r>
       <r>     0.2627     6.1670    33.4186 </r>
       <r>     0.3321     6.4632    33.8668 </r>
       <r>     0.4014     5.3174    34.2355 </r>
       <r>     0.4708     3.6776    34.4905 </r>
       <r>     0.5401     3.2727    34.7175 </r>
       <r>     0.6094     3.4926    34.9597 </r>
       <r>     0.6788     3.3714    35.1934 </r>
       <r>     0.7481     3.0820    35.4072 </r>
       <r>     0.8175     2.4350    35.5760 </r>
       <r>     0.8868     1.6025    35.6871 </r>
       <r>     0.9562     1.1801    35.7690 </r>
       <r>     1.0255     0.9807    35.8370 </r>
       <r>     1.0948     0.5286    35.8736 </r>
       <r>     1.1642     0.1690    35.8853 </r>
       <r>     1.2335     0.2025    35.8994 </r>
       <r>     1.3029     0.4730    35.9322 </r>
       <r>     1.3722     0.5008    35.9669 </r>
       <r>     1.4416     0.2564    35.9847 </r>
       <r>     1.5109     0.1246    35.9933 </r>
       <r>     1.5802     0.0712    35.9983 </r>
       <r>     1.6496     0.0221    35.9998 </r>
       <r>     1.7189     0.0029    36.0000 </r>
       <r>     1.7883     0.0002    36.0000 </r>
       <r>     1.8576     0.0000    36.0000 </r>
       <r>     1.9269     0.0000    36.0000 </r>
       <r>     1.9963     0.0000    36.0000 </r>
       <r>     2.0656     0.0000    36.0000 </r>
       <r>     2.1350     0.0000    36.0000 </r>
       <r>     2.2043     0.0000    36.0000 </r>
       <r>     2.2737     0.0000    36.0000 </r>
       <r>     2.3430     0.0000    36.0000 </r>
       <r>     2.4123     0.0002    36.0000 </r>
       <r>     2.4817     0.0056    36.0004 </r>
       <r>     2.5510     0.0633    36.0048 </r>
       <r>     2.6204     0.3048    36.0259 </r>
       <r>     2.6897     0.6859    36.0735 </r>
       <r>     2.7591     0.9251    36.1376 </r>
       <r>     2.8284     1.2944    36.2274 </r>
       <r>     2.8977     2.5729    36.4058 </r>
       <r>     2.9671     4.2659    36.7016 </r>
       <r>     3.0364     5.4193    37.0774 </r>
       <r>     3.1058     5.8352    37.4820 </r>
       <r>     3.1751     5.0894    37.8349 </r>
       <r>     3.2445     4.5963    38.1537 </r>
       <r>     3.3138     5.2541    38.5180 </r>
       <r>     3.3831     6.2247    38.9496 </r>
       <r>     3.4525     7.4190    39.4641 </r>
       <r>     3.5218     8.3233    40.0412 </r>
       <r>     3.5912     8.6792    40.6431 </r>
       <r>     3.6605     8.1270    41.2066 </r>
       <r>     3.7299     7.0513    41.6956 </r>
       <r>     3.7992     7.3347    42.2042 </r>
       <r>     3.8685     9.1590    42.8393 </r>
       <r>     3.9379     9.2917    43.4836 </r>
       <r>     4.0072     7.2776    43.9883 </r>
       <r>     4.0766     5.8155    44.3915 </r>
       <r>     4.1459     5.5146    44.7739 </r>
       <r>     4.2153     5.2410    45.1373 </r>
       <r>     4.2846     3.7969    45.4006 </r>
       <r>     4.3539     2.4399    45.5698 </r>
       <r>     4.4233     2.0444    45.7116 </r>
       <r>     4.4926     2.8636    45.9101 </r>
       <r>     4.5620     4.4250    46.2170 </r>
       <r>     4.6313     5.3867    46.5905 </r>
       <r>     4.7007     4.5110    46.9033 </r>
       <r>     4.7700     2.8323    47.0997 </r>
       <r>     4.8393     1.9184    47.2327 </r>
       <r>     4.9087     1.8866    47.3636 </r>
       <r>     4.9780     2.2297    47.5182 </r>
       <r>     5.0474     2.5944    47.6981 </r>
       <r>     5.1167     2.3172    47.8588 </r>
       <r>     5.1861     1.3766    47.9542 </r>
       <r>     5.2554     0.5306    47.9910 </r>
       <r>     5.3247     0.1168    47.9991 </r>
       <r>     5.3941     0.0123    48.0000 </r>
       <r>     5.4634     0.0006    48.0000 </r>
       <r>     5.5328     0.0000    48.0000 </r>
       <r>     5.6021     0.0000    48.0000 </r>
       <r>     5.6715     0.0000    48.0000 </r>
       <r>     5.7408     0.0000    48.0000 </r>
       <r>     5.8101     0.0000    48.0000 </r>
       <r>     5.8795     0.0000    48.0000 </r>
       <r>     5.9488     0.0000    48.0000 </r>
       <r>     6.0182     0.0000    48.0000 </r>
       <r>     6.0875     0.0000    48.0000 </r>
       <r>     6.1568     0.0000    48.0000 </r>
      </set>
     </set>
    </array>
   </total>
  </dos>
 </calculation>
 <structure name="finalpos" >
  <crystal>
   <varray name="basis" >
    <v>       3.18650000       0.00000000       0.00000000 </v>
    <v>      -1.59325000       2.75958995       0.00000000 </v>
    <v>       0.00000000       0.00000000      20.00000000 </v>
   </varray>
   <i name="volume">    175.86866745 </i>
   <varray name="rec_basis" >
    <v>       0.31382394       0.18118634       0.00000000 </v>
    <v>       0.00000000       0.36237268       0.00000000 </v>
    <v>       0.00000000       0.00000000       0.05000000 </v>
   </varray>
  </crystal>
  <varray name="positions" >
   <v>       0.65902527       0.34587942       0.69283634 </v>
   <v>       0.65905005       0.34586411       0.53651181 </v>
   <v>      -0.00211927       0.00109173       0.38437599 </v>
   <v>      -0.00216680       0.00099507       0.22844737 </v>
   <v>       0.66436778       0.33429416       0.30644433 </v>
   <v>       0.99243815       0.01248506       0.61460282 </v>
  </varray>
  <varray name="selective"  type="logical" >
   <v type="logical" >  T  T  T </v>
   <v type="logical" >  T  T  T </v>
   <v type="logical" >  T  T  T </v>
   <v type="logical" >  T  T  T </v>
   <v type="logical" >  T  T  T </v>
   <v type="logical" >  T  T  T </v>
  </varray>
  <nose>
   <v>      -3.00000000       0.00000000       0.00010000       0.00010000 </v>
  </nose>
 </structure>
</modeling>
