VaspCalc                                
           1
     3.186500    0.000000    0.000000
    -1.593250    2.759590    0.000000
     0.000000    0.000000   20.000000
   S    Mo   W 
   4   1   1
Direct configuration=     1
   0.65900920  0.34686985  0.69335133
   0.65900920  0.34686985  0.53484133
   0.00000000  0.00000000  0.38651800
   0.00000000  0.00000000  0.22800800
   0.66237839  0.33118919  0.30683333
   0.99019839  0.01568065  0.61366667
Direct configuration=     2
   0.65797431  0.34789741  0.69206830
   0.65798370  0.34782308  0.53572340
  -0.00193904 -0.00084738  0.38495713
  -0.00198057 -0.00100538  0.22882380
   0.66625357  0.33317883  0.30744891
   0.99230320  0.01356297  0.61419712
Direct configuration=     3
   0.65812093  0.34775183  0.69225008
   0.65812899  0.34768803  0.53559843
  -0.00166432 -0.00072732  0.38517827
  -0.00169997 -0.00086294  0.22870822
   0.66570455  0.33289694  0.30736170
   0.99200499  0.01386300  0.61412197
Direct configuration=     4
   0.65825925  0.34761941  0.69213087
   0.65827392  0.34749077  0.53613388
  -0.00163225 -0.00061219  0.38494530
  -0.00162955 -0.00081739  0.22931729
   0.66554609  0.33287494  0.30690498
   0.99177771  0.01405401  0.61378634
Direct configuration=     5
   0.65820375  0.34767254  0.69217870
   0.65821577  0.34756991  0.53591904
  -0.00164512 -0.00065839  0.38503878
  -0.00165780 -0.00083566  0.22907292
   0.66560967  0.33288377  0.30708823
   0.99186890  0.01397737  0.61392100
Direct configuration=     6
   0.65836496  0.34750881  0.69216636
   0.65838451  0.34736642  0.53591731
  -0.00142573 -0.00048120  0.38497691
  -0.00139806 -0.00068166  0.22910490
   0.66508067  0.33266407  0.30707135
   0.99158883  0.01423310  0.61398184
Direct configuration=     7
   0.65832808  0.34754626  0.69216918
   0.65834591  0.34741297  0.53591770
  -0.00147591 -0.00052173  0.38499106
  -0.00145747 -0.00071689  0.22909758
   0.66520167  0.33271432  0.30707521
   0.99165289  0.01417461  0.61396792
Direct configuration=     8
   0.65834517  0.34752071  0.69219873
   0.65836647  0.34736254  0.53592773
  -0.00148550 -0.00046713  0.38496342
  -0.00143829 -0.00067709  0.22908103
   0.66514097  0.33272836  0.30707443
   0.99166634  0.01414217  0.61397332
Direct configuration=     9
   0.65836375  0.34749293  0.69223084
   0.65838882  0.34730773  0.53593862
  -0.00149591 -0.00040780  0.38493339
  -0.00141744 -0.00063384  0.22906304
   0.66507499  0.33274361  0.30707358
   0.99168095  0.01410691  0.61397919
Direct configuration=    10
   0.65836959  0.34748106  0.69224083
   0.65839604  0.34728688  0.53594314
  -0.00151001 -0.00038716  0.38492555
  -0.00142062 -0.00061862  0.22905678
   0.66506741  0.33276192  0.30706541
   0.99169276  0.01408546  0.61398696
Direct configuration=    11
   0.65838710  0.34744546  0.69227078
   0.65841770  0.34722433  0.53595669
  -0.00155232 -0.00032524  0.38490204
  -0.00143016 -0.00057294  0.22903798
   0.66504466  0.33281683  0.30704091
   0.99172818  0.01402111  0.61401026
Direct configuration=    12
   0.65842213  0.34737425  0.69233068
   0.65846102  0.34709922  0.53598379
  -0.00163693 -0.00020142  0.38485502
  -0.00144925 -0.00048159  0.22900039
   0.66499917  0.33292666  0.30699192
   0.99179903  0.01389242  0.61405687
Direct configuration=    13
   0.65849220  0.34723182  0.69245049
   0.65854766  0.34684902  0.53603799
  -0.00180616  0.00004623  0.38476097
  -0.00148743 -0.00029888  0.22892520
   0.66490818  0.33314631  0.30689394
   0.99194073  0.01363504  0.61415008
Direct configuration=    14
   0.65853423  0.34714472  0.69246076
   0.65858995  0.34677268  0.53607825
  -0.00185847  0.00010371  0.38474554
  -0.00154597 -0.00023510  0.22889085
   0.66492163  0.33324243  0.30685741
   0.99195381  0.01358110  0.61418586
Direct configuration=    15
   0.65866034  0.34688341  0.69249155
   0.65871680  0.34654368  0.53619903
  -0.00201542  0.00027612  0.38469928
  -0.00172158 -0.00004375  0.22878780
   0.66496196  0.33353077  0.30674782
   0.99199307  0.01341931  0.61429319
Direct configuration=    16
   0.65869486  0.34681189  0.69249998
   0.65875152  0.34648100  0.53623208
  -0.00205837  0.00032331  0.38468662
  -0.00176965  0.00000862  0.22875959
   0.66497300  0.33360969  0.30671782
   0.99200382  0.01337502  0.61432257
Direct configuration=    17
   0.65873294  0.34671578  0.69252307
   0.65878694  0.34641574  0.53627811
  -0.00207614  0.00039408  0.38465930
  -0.00181620  0.00009879  0.22871726
   0.66493226  0.33368579  0.30669547
   0.99203537  0.01329937  0.61434545
Direct configuration=    18
   0.65884718  0.34642745  0.69259234
   0.65889321  0.34621994  0.53641619
  -0.00212943  0.00060637  0.38457735
  -0.00195586  0.00036931  0.22859027
   0.66481005  0.33391409  0.30662842
   0.99213002  0.01307239  0.61441409
Direct configuration=    19
   0.65887519  0.34632741  0.69263967
   0.65891622  0.34616300  0.53643880
  -0.00210910  0.00070328  0.38453660
  -0.00198247  0.00049584  0.22855829
   0.66469564  0.33396849  0.30660002
   0.99219970  0.01295151  0.61444527
Direct configuration=    20
   0.65895921  0.34602730  0.69278169
   0.65898525  0.34599218  0.53650664
  -0.00204811  0.00099403  0.38441435
  -0.00206232  0.00087545  0.22846235
   0.66435241  0.33413171  0.30651482
   0.99240873  0.01258888  0.61453881
Direct configuration=    21
   0.65902527  0.34587942  0.69283634
   0.65905005  0.34586411  0.53651181
  -0.00211927  0.00109173  0.38437599
  -0.00216680  0.00099507  0.22844737
   0.66436778  0.33429416  0.30644433
   0.99243815  0.01248506  0.61460282
