VaspCalc                                
   1.00000000000000     
     3.186500    0.000000    0.000000
    -1.593250    2.759590    0.000000
     0.000000    0.000000   20.000000
   S    Mo   W 
     4     1     1
Direct
  0.659025  0.345879  0.692836
  0.659050  0.345864  0.536512
  0.997881  0.001092  0.384376
  0.997833  0.000995  0.228447
  0.664368  0.334294  0.306444
  0.992438  0.012485  0.614603
 
   20   20  126
 0.12704E-02 0.12821E-02 0.12150E-02 0.94621E-03 0.61481E-03 0.41605E-03 0.36503E-03 0.36514E-03 0.36545E-03 0.36726E-03
 0.36723E-03 0.36253E-03 0.36232E-03 0.36176E-03 0.36777E-03 0.47205E-03 0.76970E-03 0.11535E-02 0.13646E-02 0.13357E-02
 0.13436E-02 0.13160E-02 0.12710E-02 0.10616E-02 0.72567E-03 0.46032E-03 0.35571E-03 0.34774E-03 0.37129E-03 0.41204E-03
 0.44531E-03 0.43683E-03 0.39576E-03 0.35958E-03 0.34291E-03 0.37761E-03 0.55882E-03 0.91090E-03 0.12519E-02 0.13794E-02
 0.13810E-02 0.13772E-02 0.13004E-02 0.11018E-02 0.78941E-03 0.50580E-03 0.36339E-03 0.34769E-03 0.41222E-03 0.53430E-03
 0.66158E-03 0.70733E-03 0.63464E-03 0.50035E-03 0.38924E-03 0.34454E-03 0.40395E-03 0.62345E-03 0.96622E-03 0.12595E-02
 0.11747E-02 0.12867E-02 0.12425E-02 0.10568E-02 0.77910E-03 0.51980E-03 0.37326E-03 0.35813E-03 0.46811E-03 0.69121E-03
 0.95299E-03 0.11231E-02 0.11055E-02 0.90824E-03 0.64141E-03 0.43552E-03 0.35628E-03 0.41910E-03 0.62682E-03 0.92198E-03
 0.78636E-03 0.96719E-03 0.10131E-02 0.90077E-03 0.69214E-03 0.49063E-03 0.36989E-03 0.35938E-03 0.49582E-03 0.79881E-03
 0.11798E-02 0.14776E-02 0.15811E-02 0.14548E-02 0.11300E-02 0.73985E-03 0.45766E-03 0.35642E-03 0.40618E-03 0.56658E-03
 0.47898E-03 0.60802E-03 0.69521E-03 0.67475E-03 0.56323E-03 0.43920E-03 0.35929E-03 0.34852E-03 0.47278E-03 0.80195E-03
 0.12568E-02 0.16350E-02 0.18243E-02 0.18306E-02 0.16283E-02 0.12094E-02 0.73839E-03 0.43455E-03 0.34460E-03 0.37989E-03
 0.36826E-03 0.41441E-03 0.46889E-03 0.49026E-03 0.45647E-03 0.40127E-03 0.35995E-03 0.34397E-03 0.41869E-03 0.70270E-03
 0.11778E-02 0.16181E-02 0.18503E-02 0.19247E-02 0.18861E-02 0.16228E-02 0.11244E-02 0.63827E-03 0.38800E-03 0.34243E-03
 0.36095E-03 0.37865E-03 0.39443E-03 0.41074E-03 0.40965E-03 0.39285E-03 0.37604E-03 0.35831E-03 0.37554E-03 0.55390E-03
 0.96781E-03 0.14563E-02 0.17702E-02 0.18828E-02 0.19146E-02 0.18157E-02 0.14421E-02 0.90124E-03 0.49793E-03 0.35880E-03
 0.36214E-03 0.38328E-03 0.39224E-03 0.39805E-03 0.40228E-03 0.39839E-03 0.39147E-03 0.37920E-03 0.36590E-03 0.43146E-03
 0.69765E-03 0.11415E-02 0.15484E-02 0.17613E-02 0.18312E-02 0.18007E-02 0.15612E-02 0.10941E-02 0.63089E-03 0.39534E-03
 0.36322E-03 0.37680E-03 0.38976E-03 0.39367E-03 0.39778E-03 0.39769E-03 0.39328E-03 0.38758E-03 0.37532E-03 0.37797E-03
 0.48235E-03 0.76094E-03 0.11395E-02 0.14464E-02 0.15984E-02 0.16100E-02 0.14555E-02 0.11101E-02 0.70330E-03 0.43724E-03
 0.36906E-03 0.37084E-03 0.38124E-03 0.38391E-03 0.38726E-03 0.38948E-03 0.38687E-03 0.38345E-03 0.38032E-03 0.37360E-03
 0.38666E-03 0.48377E-03 0.69874E-03 0.96419E-03 0.11665E-02 0.12400E-02 0.11635E-02 0.94307E-03 0.65923E-03 0.44711E-03
 0.36967E-03 0.37200E-03 0.37818E-03 0.37800E-03 0.37929E-03 0.38204E-03 0.38178E-03 0.37912E-03 0.37821E-03 0.37823E-03
 0.37419E-03 0.37989E-03 0.43456E-03 0.55600E-03 0.70107E-03 0.79623E-03 0.79188E-03 0.68692E-03 0.53423E-03 0.41465E-03
 0.36699E-03 0.37717E-03 0.38104E-03 0.37815E-03 0.37712E-03 0.37829E-03 0.37874E-03 0.37813E-03 0.37717E-03 0.37836E-03
 0.38065E-03 0.37616E-03 0.36783E-03 0.37827E-03 0.42088E-03 0.47330E-03 0.49511E-03 0.46771E-03 0.41320E-03 0.37318E-03
 0.36545E-03 0.38364E-03 0.38805E-03 0.38297E-03 0.37931E-03 0.37813E-03 0.37701E-03 0.37721E-03 0.37820E-03 0.37932E-03
 0.38357E-03 0.38761E-03 0.37968E-03 0.35957E-03 0.34547E-03 0.34942E-03 0.35960E-03 0.35836E-03 0.34838E-03 0.34849E-03
 0.36527E-03 0.38419E-03 0.39458E-03 0.39219E-03 0.38616E-03 0.38183E-03 0.37838E-03 0.37698E-03 0.37879E-03 0.38197E-03
 0.38700E-03 0.39338E-03 0.39206E-03 0.37707E-03 0.36015E-03 0.35737E-03 0.36626E-03 0.36976E-03 0.36151E-03 0.35542E-03
 0.41484E-03 0.39742E-03 0.39897E-03 0.40148E-03 0.39669E-03 0.38861E-03 0.38179E-03 0.37805E-03 0.37829E-03 0.38220E-03
 0.38961E-03 0.39799E-03 0.39958E-03 0.39428E-03 0.39980E-03 0.43190E-03 0.47816E-03 0.50617E-03 0.49532E-03 0.45494E-03
 0.60677E-03 0.50224E-03 0.43619E-03 0.41261E-03 0.40560E-03 0.39657E-03 0.38605E-03 0.37919E-03 0.37708E-03 0.37938E-03
 0.38730E-03 0.39800E-03 0.40351E-03 0.41074E-03 0.45233E-03 0.54878E-03 0.66797E-03 0.75127E-03 0.76478E-03 0.70879E-03
 0.92979E-03 0.75705E-03 0.57460E-03 0.45605E-03 0.41218E-03 0.40113E-03 0.39207E-03 0.38289E-03 0.37812E-03 0.37811E-03
 0.38396E-03 0.39372E-03 0.39893E-03 0.41131E-03 0.48432E-03 0.65525E-03 0.86812E-03 0.10190E-02 0.10670E-02 0.10346E-02
 0.11979E-02 0.10663E-02 0.82320E-03 0.57552E-03 0.43565E-03 0.39827E-03 0.39454E-03 0.38813E-03 0.38095E-03 0.37818E-03
 0.38137E-03 0.38987E-03 0.39286E-03 0.39499E-03 0.46376E-03 0.67635E-03 0.97996E-03 0.12044E-02 0.12665E-02 0.12446E-02
 0.12729E-02 0.12487E-02 0.10732E-02 0.76347E-03 0.50399E-03 0.39681E-03 0.38409E-03 0.38372E-03 0.37653E-03 0.37111E-03
 0.37044E-03 0.37684E-03 0.38381E-03 0.37948E-03 0.41177E-03 0.59456E-03 0.94075E-03 0.12556E-02 0.13516E-02 0.12988E-02
 0.58758E-04 0.66560E-04 0.15019E-03 0.35898E-03 0.57205E-03 0.66638E-03 0.65854E-03 0.62545E-03 0.59765E-03 0.57485E-03
 0.56763E-03 0.58103E-03 0.60315E-03 0.63117E-03 0.65890E-03 0.62150E-03 0.44547E-03 0.19222E-03 0.34192E-04 0.28382E-04
 0.23575E-04 0.42633E-04 0.94446E-04 0.26107E-03 0.49052E-03 0.64284E-03 0.67349E-03 0.64222E-03 0.59679E-03 0.54688E-03
 0.51328E-03 0.52174E-03 0.56341E-03 0.60967E-03 0.64934E-03 0.65759E-03 0.56258E-03 0.34058E-03 0.11117E-03 0.13373E-04
 0.22443E-04 0.24462E-04 0.82971E-04 0.22807E-03 0.44032E-03 0.61308E-03 0.67533E-03 0.65141E-03 0.58454E-03 0.49305E-03
 0.40839E-03 0.38214E-03 0.43318E-03 0.52406E-03 0.60645E-03 0.65709E-03 0.64383E-03 0.51742E-03 0.29855E-03 0.10523E-03
 0.17486E-03 0.10973E-03 0.14360E-03 0.26685E-03 0.44516E-03 0.60088E-03 0.67064E-03 0.65176E-03 0.56623E-03 0.43160E-03
 0.28710E-03 0.19882E-03 0.21529E-03 0.32747E-03 0.47515E-03 0.59555E-03 0.65631E-03 0.63496E-03 0.51430E-03 0.33101E-03
 0.43038E-03 0.33155E-03 0.31299E-03 0.38336E-03 0.50502E-03 0.61583E-03 0.66898E-03 0.65026E-03 0.55552E-03 0.39077E-03
 0.20254E-03 0.62171E-04 0.18338E-04 0.86440E-04 0.24849E-03 0.44164E-03 0.58939E-03 0.65588E-03 0.64143E-03 0.55518E-03
 0.61442E-03 0.55633E-03 0.52027E-03 0.53579E-03 0.59053E-03 0.64473E-03 0.66901E-03 0.64935E-03 0.56062E-03 0.38657E-03
 0.17566E-03 0.14111E-04 -.62152E-04 -.61751E-04 0.30030E-04 0.22105E-03 0.44152E-03 0.59518E-03 0.65632E-03 0.65489E-03
 0.65789E-03 0.65464E-03 0.64471E-03 0.64229E-03 0.65269E-03 0.66267E-03 0.66161E-03 0.64358E-03 0.57624E-03 0.41782E-03
 0.19837E-03 0.22439E-04 -.55879E-04 -.80937E-04 -.72680E-04 0.31718E-04 0.24899E-03 0.47455E-03 0.60600E-03 0.64917E-03
 0.63172E-03 0.64523E-03 0.65878E-03 0.66550E-03 0.66520E-03 0.65748E-03 0.64451E-03 0.62994E-03 0.59011E-03 0.47125E-03
 0.26584E-03 0.66132E-04 -.33343E-04 -.57204E-04 -.76013E-04 -.55905E-04 0.89075E-04 0.32684E-03 0.52284E-03 0.60947E-03
 0.60324E-03 0.61394E-03 0.62795E-03 0.64128E-03 0.64551E-03 0.63920E-03 0.62639E-03 0.61448E-03 0.59514E-03 0.52559E-03
 0.36893E-03 0.16784E-03 0.22862E-04 -.29833E-04 -.47442E-04 -.52938E-04 0.23098E-04 0.21466E-03 0.43064E-03 0.56209E-03
 0.58031E-03 0.59551E-03 0.60432E-03 0.61516E-03 0.62183E-03 0.62117E-03 0.61393E-03 0.60440E-03 0.59376E-03 0.56256E-03
 0.47441E-03 0.32378E-03 0.16685E-03 0.67640E-04 0.28337E-04 0.21490E-04 0.65964E-04 0.19704E-03 0.37776E-03 0.51873E-03
 0.56591E-03 0.58448E-03 0.59186E-03 0.59878E-03 0.60352E-03 0.60497E-03 0.60309E-03 0.59803E-03 0.59119E-03 0.57937E-03
 0.54632E-03 0.47275E-03 0.36547E-03 0.26270E-03 0.19772E-03 0.17670E-03 0.20204E-03 0.28296E-03 0.40233E-03 0.50871E-03
 0.57286E-03 0.58269E-03 0.58620E-03 0.58895E-03 0.58974E-03 0.58930E-03 0.58939E-03 0.58950E-03 0.58826E-03 0.58541E-03
 0.57906E-03 0.56109E-03 0.52227E-03 0.46658E-03 0.41323E-03 0.38266E-03 0.38659E-03 0.42617E-03 0.48716E-03 0.54241E-03
 0.59684E-03 0.59352E-03 0.59075E-03 0.58816E-03 0.58357E-03 0.57885E-03 0.57719E-03 0.57934E-03 0.58389E-03 0.58832E-03
 0.59127E-03 0.59358E-03 0.59404E-03 0.58771E-03 0.57288E-03 0.55692E-03 0.55165E-03 0.56221E-03 0.58085E-03 0.59434E-03
 0.62590E-03 0.61172E-03 0.60410E-03 0.59816E-03 0.58865E-03 0.57830E-03 0.57243E-03 0.57284E-03 0.57943E-03 0.58970E-03
 0.59847E-03 0.60500E-03 0.61480E-03 0.62967E-03 0.64301E-03 0.64880E-03 0.64967E-03 0.65086E-03 0.65038E-03 0.64179E-03
 0.65924E-03 0.63856E-03 0.62371E-03 0.61441E-03 0.60280E-03 0.58795E-03 0.57637E-03 0.57249E-03 0.57736E-03 0.58971E-03
 0.60368E-03 0.61458E-03 0.62660E-03 0.64460E-03 0.66288E-03 0.67242E-03 0.67382E-03 0.67512E-03 0.67817E-03 0.67478E-03
 0.66902E-03 0.66822E-03 0.65247E-03 0.63551E-03 0.62062E-03 0.60410E-03 0.58794E-03 0.57835E-03 0.57899E-03 0.58961E-03
 0.60556E-03 0.62167E-03 0.63898E-03 0.65753E-03 0.66605E-03 0.65374E-03 0.62938E-03 0.61523E-03 0.62446E-03 0.64952E-03
 0.58107E-03 0.64616E-03 0.67161E-03 0.66162E-03 0.64029E-03 0.62058E-03 0.60273E-03 0.58868E-03 0.58370E-03 0.59001E-03
 0.60405E-03 0.62226E-03 0.64518E-03 0.66570E-03 0.65885E-03 0.60624E-03 0.52881E-03 0.47137E-03 0.46348E-03 0.50716E-03
 0.37419E-03 0.50689E-03 0.62298E-03 0.67139E-03 0.66167E-03 0.63545E-03 0.61421E-03 0.59808E-03 0.58823E-03 0.58910E-03
 0.59916E-03 0.61556E-03 0.64098E-03 0.66613E-03 0.64979E-03 0.55559E-03 0.41355E-03 0.29977E-03 0.25761E-03 0.28441E-03
 0.16404E-03 0.28794E-03 0.47222E-03 0.62149E-03 0.67119E-03 0.65241E-03 0.62324E-03 0.60366E-03 0.59062E-03 0.58615E-03
 0.59189E-03 0.60447E-03 0.62764E-03 0.65893E-03 0.65082E-03 0.53878E-03 0.34251E-03 0.17489E-03 0.10902E-03 0.11448E-03
 0.72945E-04 0.12284E-03 0.28179E-03 0.50006E-03 0.64304E-03 0.66764E-03 0.63793E-03 0.61096E-03 0.59342E-03 0.58296E-03
 0.58453E-03 0.59537E-03 0.61349E-03 0.64480E-03 0.65796E-03 0.56952E-03 0.35496E-03 0.13464E-03 0.42657E-04 0.53927E-04
 0.14134E-02 0.13728E-02 0.12724E-02 0.11676E-02 0.11006E-02 0.10629E-02 0.10270E-02 0.98869E-03 0.96048E-03 0.94652E-03
 0.94201E-03 0.94597E-03 0.96177E-03 0.99152E-03 0.10334E-02 0.10848E-02 0.11455E-02 0.12187E-02 0.13033E-02 0.13804E-02
 0.13792E-02 0.13761E-02 0.13124E-02 0.12203E-02 0.11428E-02 0.10910E-02 0.10485E-02 0.10056E-02 0.96708E-03 0.93817E-03
 0.92047E-03 0.91851E-03 0.93535E-03 0.96719E-03 0.10092E-02 0.10614E-02 0.11238E-02 0.11918E-02 0.12623E-02 0.13311E-02
 0.13038E-02 0.13175E-02 0.12898E-02 0.12304E-02 0.11667E-02 0.11134E-02 0.10657E-02 0.10154E-02 0.95868E-03 0.89765E-03
 0.84425E-03 0.81964E-03 0.83837E-03 0.89224E-03 0.95783E-03 0.10208E-02 0.10839E-02 0.11492E-02 0.12105E-02 0.12633E-02
 0.12227E-02 0.12343E-02 0.12255E-02 0.11975E-02 0.11597E-02 0.11190E-02 0.10744E-02 0.10194E-02 0.94159E-03 0.83616E-03
 0.72440E-03 0.64852E-03 0.64391E-03 0.71483E-03 0.82902E-03 0.94030E-03 0.10257E-02 0.10928E-02 0.11503E-02 0.11946E-02
 0.11504E-02 0.11567E-02 0.11518E-02 0.11417E-02 0.11270E-02 0.11042E-02 0.10707E-02 0.10211E-02 0.93421E-03 0.79164E-03
 0.61843E-03 0.47755E-03 0.42123E-03 0.46871E-03 0.60692E-03 0.78357E-03 0.93203E-03 0.10260E-02 0.10848E-02 0.11264E-02
 0.10874E-02 0.10959E-02 0.10918E-02 0.10870E-02 0.10844E-02 0.10753E-02 0.10543E-02 0.10193E-02 0.94557E-03 0.79459E-03
 0.57926E-03 0.38057E-03 0.26979E-03 0.26549E-03 0.36990E-03 0.56703E-03 0.78518E-03 0.94158E-03 0.10214E-02 0.10623E-02
 0.10335E-02 0.10479E-02 0.10493E-02 0.10459E-02 0.10461E-02 0.10434E-02 0.10299E-02 0.10088E-02 0.96483E-03 0.84462E-03
 0.62568E-03 0.38418E-03 0.22320E-03 0.17101E-03 0.21724E-03 0.37306E-03 0.61187E-03 0.83291E-03 0.95929E-03 0.10092E-02
 0.99087E-03 0.10065E-02 0.10153E-02 0.10155E-02 0.10155E-02 0.10147E-02 0.10047E-02 0.98987E-03 0.97287E-03 0.90964E-03
 0.73966E-03 0.49067E-03 0.27823E-03 0.17563E-03 0.17415E-03 0.27219E-03 0.47797E-03 0.72293E-03 0.89627E-03 0.96783E-03
 0.96160E-03 0.97244E-03 0.98366E-03 0.98794E-03 0.98795E-03 0.98810E-03 0.98259E-03 0.97042E-03 0.96383E-03 0.94971E-03
 0.86502E-03 0.67304E-03 0.44284E-03 0.28230E-03 0.23047E-03 0.28063E-03 0.43508E-03 0.65690E-03 0.84617E-03 0.93774E-03
 0.94665E-03 0.95044E-03 0.95783E-03 0.96274E-03 0.96250E-03 0.96264E-03 0.96239E-03 0.95608E-03 0.94993E-03 0.95352E-03
 0.93924E-03 0.84914E-03 0.67694E-03 0.49909E-03 0.39625E-03 0.39590E-03 0.49538E-03 0.66546E-03 0.83105E-03 0.92315E-03
 0.94353E-03 0.94140E-03 0.94276E-03 0.94462E-03 0.94267E-03 0.94105E-03 0.94282E-03 0.94420E-03 0.94177E-03 0.94304E-03
 0.95206E-03 0.94073E-03 0.86995E-03 0.74922E-03 0.63951E-03 0.59637E-03 0.63733E-03 0.74217E-03 0.85697E-03 0.92655E-03
 0.94823E-03 0.94143E-03 0.93822E-03 0.93586E-03 0.93065E-03 0.92621E-03 0.92642E-03 0.93118E-03 0.93598E-03 0.93792E-03
 0.94330E-03 0.95461E-03 0.95285E-03 0.91616E-03 0.85506E-03 0.80831E-03 0.80697E-03 0.85049E-03 0.90810E-03 0.94360E-03
 0.96155E-03 0.94931E-03 0.94196E-03 0.93569E-03 0.92659E-03 0.91859E-03 0.91594E-03 0.91929E-03 0.92748E-03 0.93609E-03
 0.94201E-03 0.95046E-03 0.96513E-03 0.97568E-03 0.96990E-03 0.95300E-03 0.94311E-03 0.95015E-03 0.96505E-03 0.97044E-03
 0.98930E-03 0.97031E-03 0.95568E-03 0.94334E-03 0.93001E-03 0.91822E-03 0.91205E-03 0.91251E-03 0.91939E-03 0.93137E-03
 0.94447E-03 0.95655E-03 0.97129E-03 0.99121E-03 0.10106E-02 0.10218E-02 0.10245E-02 0.10230E-02 0.10183E-02 0.10073E-02
 0.10274E-02 0.10048E-02 0.98233E-03 0.96068E-03 0.94098E-03 0.92518E-03 0.91515E-03 0.91211E-03 0.91610E-03 0.92668E-03
 0.94315E-03 0.96300E-03 0.98369E-03 0.10058E-02 0.10304E-02 0.10539E-02 0.10699E-02 0.10739E-02 0.10657E-02 0.10488E-02
 0.10618E-02 0.10372E-02 0.10135E-02 0.98714E-03 0.96062E-03 0.93935E-03 0.92527E-03 0.91837E-03 0.91884E-03 0.92657E-03
 0.94148E-03 0.96337E-03 0.98927E-03 0.10155E-02 0.10424E-02 0.10718E-02 0.10990E-02 0.11137E-02 0.11091E-02 0.10883E-02
 0.10964E-02 0.10594E-02 0.10343E-02 0.10130E-02 0.98714E-03 0.96068E-03 0.94112E-03 0.93019E-03 0.92686E-03 0.93102E-03
 0.94312E-03 0.96326E-03 0.98907E-03 0.10158E-02 0.10434E-02 0.10777E-02 0.11179E-02 0.11505E-02 0.11587E-02 0.11365E-02
 0.11622E-02 0.10972E-02 0.10518E-02 0.10305E-02 0.10130E-02 0.98709E-03 0.96068E-03 0.94336E-03 0.93579E-03 0.93609E-03
 0.94492E-03 0.96332E-03 0.98897E-03 0.10157E-02 0.10426E-02 0.10789E-02 0.11311E-02 0.11880E-02 0.12229E-02 0.12138E-02
 0.12695E-02 0.11822E-02 0.10979E-02 0.10527E-02 0.10348E-02 0.10134E-02 0.98212E-03 0.95556E-03 0.94189E-03 0.93828E-03
 0.94293E-03 0.95818E-03 0.98448E-03 0.10158E-02 0.10468E-02 0.10846E-02 0.11423E-02 0.12184E-02 0.12862E-02 0.13100E-02
 0.13729E-02 0.12949E-02 0.11842E-02 0.11003E-02 0.10613E-02 0.10374E-02 0.10044E-02 0.97012E-03 0.94910E-03 0.94124E-03
 0.94145E-03 0.95075E-03 0.97312E-03 0.10073E-02 0.10468E-02 0.10909E-02 0.11493E-02 0.12292E-02 0.13169E-02 0.13773E-02
 0.23002E-02 0.23287E-02 0.23286E-02 0.21667E-02 0.19036E-02 0.16921E-02 0.15839E-02 0.15298E-02 0.14895E-02 0.14625E-02
 0.14537E-02 0.14632E-02 0.14926E-02 0.15339E-02 0.15911E-02 0.17227E-02 0.19803E-02 0.22711E-02 0.24089E-02 0.23617E-02
 0.23676E-02 0.23498E-02 0.23436E-02 0.22225E-02 0.19762E-02 0.17368E-02 0.15938E-02 0.15267E-02 0.14967E-02 0.14940E-02
 0.15039E-02 0.15016E-02 0.14906E-02 0.14966E-02 0.15304E-02 0.16090E-02 0.17865E-02 0.20690E-02 0.23223E-02 0.24057E-02
 0.24188E-02 0.24187E-02 0.23729E-02 0.22417E-02 0.20099E-02 0.17667E-02 0.16031E-02 0.15303E-02 0.15327E-02 0.16009E-02
 0.16925E-02 0.17320E-02 0.16826E-02 0.15891E-02 0.15270E-02 0.15345E-02 0.16266E-02 0.18260E-02 0.21003E-02 0.23263E-02
 0.22809E-02 0.23780E-02 0.23538E-02 0.22180E-02 0.19994E-02 0.17721E-02 0.16085E-02 0.15384E-02 0.15826E-02 0.17485E-02
 0.19719E-02 0.21284E-02 0.21220E-02 0.19544E-02 0.17284E-02 0.15718E-02 0.15433E-02 0.16348E-02 0.18272E-02 0.20735E-02
 0.19860E-02 0.21469E-02 0.21964E-02 0.21117E-02 0.19365E-02 0.17482E-02 0.16042E-02 0.15376E-02 0.16059E-02 0.18522E-02
 0.22023E-02 0.24934E-02 0.26027E-02 0.24882E-02 0.21840E-02 0.18278E-02 0.15928E-02 0.15430E-02 0.16270E-02 0.17888E-02
 0.17239E-02 0.18519E-02 0.19387E-02 0.19276E-02 0.18275E-02 0.17011E-02 0.15932E-02 0.15275E-02 0.15814E-02 0.18512E-02
 0.22830E-02 0.26727E-02 0.28797E-02 0.28886E-02 0.26807E-02 0.22678E-02 0.18255E-02 0.15701E-02 0.15339E-02 0.16090E-02
 0.15903E-02 0.16533E-02 0.17139E-02 0.17389E-02 0.17064E-02 0.16444E-02 0.15813E-02 0.15221E-02 0.15305E-02 0.17472E-02
 0.21937E-02 0.26579E-02 0.29319E-02 0.30209E-02 0.29627E-02 0.26745E-02 0.21763E-02 0.17231E-02 0.15249E-02 0.15296E-02
 0.15331E-02 0.15690E-02 0.15916E-02 0.16100E-02 0.16089E-02 0.15895E-02 0.15651E-02 0.15258E-02 0.14938E-02 0.16015E-02
 0.19664E-02 0.24664E-02 0.28353E-02 0.29883E-02 0.30116E-02 0.28733E-02 0.24722E-02 0.19431E-02 0.15841E-02 0.14952E-02
 0.14922E-02 0.15282E-02 0.15383E-02 0.15413E-02 0.15439E-02 0.15410E-02 0.15372E-02 0.15236E-02 0.14869E-02 0.14952E-02
 0.16958E-02 0.21168E-02 0.25599E-02 0.28260E-02 0.29132E-02 0.28551E-02 0.25781E-02 0.21038E-02 0.16738E-02 0.14883E-02
 0.14630E-02 0.14934E-02 0.15056E-02 0.15026E-02 0.15014E-02 0.15013E-02 0.15024E-02 0.15041E-02 0.14894E-02 0.14622E-02
 0.15095E-02 0.17385E-02 0.21123E-02 0.24529E-02 0.26349E-02 0.26436E-02 0.24643E-02 0.21060E-02 0.17202E-02 0.14983E-02
 0.14540E-02 0.14715E-02 0.14826E-02 0.14790E-02 0.14754E-02 0.14748E-02 0.14754E-02 0.14788E-02 0.14813E-02 0.14692E-02
 0.14551E-02 0.15095E-02 0.16928E-02 0.19565E-02 0.21753E-02 0.22583E-02 0.21765E-02 0.19511E-02 0.16810E-02 0.15006E-02
 0.14634E-02 0.14711E-02 0.14741E-02 0.14684E-02 0.14640E-02 0.14626E-02 0.14627E-02 0.14642E-02 0.14685E-02 0.14735E-02
 0.14697E-02 0.14632E-02 0.14955E-02 0.15985E-02 0.17387E-02 0.18373E-02 0.18362E-02 0.17349E-02 0.15933E-02 0.14922E-02
 0.14906E-02 0.14913E-02 0.14814E-02 0.14681E-02 0.14615E-02 0.14593E-02 0.14586E-02 0.14596E-02 0.14618E-02 0.14686E-02
 0.14819E-02 0.14904E-02 0.14883E-02 0.14948E-02 0.15296E-02 0.15778E-02 0.16003E-02 0.15772E-02 0.15297E-02 0.14965E-02
 0.15307E-02 0.15250E-02 0.15028E-02 0.14775E-02 0.14636E-02 0.14591E-02 0.14573E-02 0.14576E-02 0.14596E-02 0.14643E-02
 0.14793E-02 0.15048E-02 0.15247E-02 0.15274E-02 0.15237E-02 0.15285E-02 0.15377E-02 0.15382E-02 0.15305E-02 0.15275E-02
 0.15852E-02 0.15670E-02 0.15355E-02 0.14995E-02 0.14736E-02 0.14619E-02 0.14580E-02 0.14573E-02 0.14587E-02 0.14629E-02
 0.14758E-02 0.15032E-02 0.15385E-02 0.15669E-02 0.15834E-02 0.15949E-02 0.16053E-02 0.16095E-02 0.16045E-02 0.15954E-02
 0.16939E-02 0.16424E-02 0.15887E-02 0.15383E-02 0.14981E-02 0.14730E-02 0.14619E-02 0.14591E-02 0.14594E-02 0.14629E-02
 0.14753E-02 0.15022E-02 0.15428E-02 0.15921E-02 0.16469E-02 0.17020E-02 0.17471E-02 0.17704E-02 0.17661E-02 0.17377E-02
 0.19033E-02 0.18034E-02 0.16963E-02 0.16058E-02 0.15408E-02 0.14982E-02 0.14738E-02 0.14637E-02 0.14617E-02 0.14644E-02
 0.14759E-02 0.15023E-02 0.15458E-02 0.16120E-02 0.17089E-02 0.18264E-02 0.19308E-02 0.19913E-02 0.20028E-02 0.19725E-02
 0.21616E-02 0.20493E-02 0.18839E-02 0.17211E-02 0.16055E-02 0.15382E-02 0.14996E-02 0.14777E-02 0.14683E-02 0.14688E-02
 0.14796E-02 0.15035E-02 0.15429E-02 0.16127E-02 0.17405E-02 0.19243E-02 0.21015E-02 0.22031E-02 0.22269E-02 0.22117E-02
 0.23204E-02 0.22693E-02 0.21089E-02 0.18834E-02 0.16952E-02 0.15881E-02 0.15355E-02 0.15028E-02 0.14813E-02 0.14742E-02
 0.14831E-02 0.15064E-02 0.15395E-02 0.15936E-02 0.17150E-02 0.19347E-02 0.21846E-02 0.23363E-02 0.23548E-02 0.23293E-02
 0.23229E-02 0.23486E-02 0.22718E-02 0.20502E-02 0.18021E-02 0.16410E-02 0.15664E-02 0.15245E-02 0.14905E-02 0.14704E-02
 0.14713E-02 0.14937E-02 0.15290E-02 0.15703E-02 0.16543E-02 0.18490E-02 0.21373E-02 0.23629E-02 0.24031E-02 0.23379E-02
 0.24462E-02 0.23892E-02 0.23443E-02 0.24712E-02 0.26576E-02 0.27125E-02 0.26205E-02 0.24869E-02 0.23764E-02 0.23014E-02
 0.22769E-02 0.23114E-02 0.23896E-02 0.25037E-02 0.26338E-02 0.26774E-02 0.25292E-02 0.22907E-02 0.22135E-02 0.23436E-02
 0.23345E-02 0.23584E-02 0.23264E-02 0.24113E-02 0.26050E-02 0.27233E-02 0.26799E-02 0.25476E-02 0.24024E-02 0.22695E-02
 0.21858E-02 0.21964E-02 0.22922E-02 0.24246E-02 0.25663E-02 0.26760E-02 0.26484E-02 0.24465E-02 0.22437E-02 0.22310E-02
 0.21958E-02 0.22274E-02 0.22676E-02 0.23753E-02 0.25652E-02 0.27094E-02 0.27034E-02 0.25726E-02 0.23739E-02 0.21382E-02
 0.19308E-02 0.18563E-02 0.19607E-02 0.21789E-02 0.24078E-02 0.25904E-02 0.26818E-02 0.26151E-02 0.24122E-02 0.22358E-02
 0.22690E-02 0.22017E-02 0.22410E-02 0.23732E-02 0.25590E-02 0.26980E-02 0.27049E-02 0.25727E-02 0.23162E-02 0.19543E-02
 0.15775E-02 0.13407E-02 0.13593E-02 0.16261E-02 0.20118E-02 0.23602E-02 0.25896E-02 0.26778E-02 0.26117E-02 0.24353E-02
 0.25124E-02 0.23861E-02 0.23554E-02 0.24440E-02 0.25923E-02 0.26997E-02 0.26995E-02 0.25724E-02 0.22859E-02 0.18244E-02
 0.12952E-02 0.89124E-03 0.74960E-03 0.91550E-03 0.13495E-02 0.18918E-02 0.23359E-02 0.25895E-02 0.26795E-02 0.26406E-02
 0.26698E-02 0.26046E-02 0.25463E-02 0.25634E-02 0.26403E-02 0.26971E-02 0.26807E-02 0.25740E-02 0.23125E-02 0.18219E-02
 0.11969E-02 0.67998E-03 0.41662E-03 0.41076E-03 0.68872E-03 0.12494E-02 0.18940E-02 0.23617E-02 0.25903E-02 0.26732E-02
 0.26320E-02 0.26558E-02 0.26418E-02 0.26314E-02 0.26496E-02 0.26609E-02 0.26305E-02 0.25543E-02 0.23695E-02 0.19447E-02
 0.12986E-02 0.69768E-03 0.36201E-03 0.25456E-03 0.32696E-03 0.69561E-03 0.13572E-02 0.20165E-02 0.24094E-02 0.25661E-02
 0.25031E-02 0.25532E-02 0.25857E-02 0.25921E-02 0.25915E-02 0.25824E-02 0.25484E-02 0.24974E-02 0.24012E-02 0.21216E-02
 0.15660E-02 0.91533E-03 0.47272E-03 0.29755E-03 0.26607E-03 0.42854E-03 0.93220E-03 0.16365E-02 0.21827E-02 0.24250E-02
 0.23888E-02 0.24234E-02 0.24632E-02 0.24887E-02 0.24940E-02 0.24856E-02 0.24585E-02 0.24206E-02 0.23792E-02 0.22540E-02
 0.18996E-02 0.13274E-02 0.78662E-03 0.48340E-03 0.38427E-03 0.44489E-03 0.77546E-03 0.13761E-02 0.19675E-02 0.22930E-02
 0.23104E-02 0.23319E-02 0.23583E-02 0.23880E-02 0.24016E-02 0.24005E-02 0.23848E-02 0.23552E-02 0.23285E-02 0.22937E-02
 0.21533E-02 0.18085E-02 0.13312E-02 0.92901E-03 0.72278E-03 0.71165E-03 0.92096E-03 0.13610E-02 0.18650E-02 0.21975E-02
 0.22755E-02 0.22824E-02 0.22924E-02 0.23161E-02 0.23329E-02 0.23373E-02 0.23313E-02 0.23129E-02 0.22893E-02 0.22778E-02
 0.22594E-02 0.21530E-02 0.19013E-02 0.15745E-02 0.13167E-02 0.12218E-02 0.13202E-02 0.15955E-02 0.19387E-02 0.21865E-02
 0.23000E-02 0.22790E-02 0.22672E-02 0.22760E-02 0.22881E-02 0.22943E-02 0.22940E-02 0.22865E-02 0.22734E-02 0.22657E-02
 0.22779E-02 0.22934E-02 0.22537E-02 0.21239E-02 0.19526E-02 0.18353E-02 0.18395E-02 0.19660E-02 0.21435E-02 0.22697E-02
 0.23763E-02 0.23250E-02 0.22882E-02 0.22740E-02 0.22709E-02 0.22716E-02 0.22726E-02 0.22716E-02 0.22705E-02 0.22739E-02
 0.22903E-02 0.23297E-02 0.23799E-02 0.24019E-02 0.23719E-02 0.23177E-02 0.22929E-02 0.23224E-02 0.23774E-02 0.24032E-02
 0.24884E-02 0.24133E-02 0.23520E-02 0.23115E-02 0.22852E-02 0.22706E-02 0.22660E-02 0.22664E-02 0.22718E-02 0.22873E-02
 0.23144E-02 0.23575E-02 0.24230E-02 0.24994E-02 0.25563E-02 0.25772E-02 0.25766E-02 0.25769E-02 0.25756E-02 0.25495E-02
 0.26222E-02 0.25365E-02 0.24508E-02 0.23812E-02 0.23282E-02 0.22911E-02 0.22713E-02 0.22661E-02 0.22730E-02 0.22948E-02
 0.23329E-02 0.23871E-02 0.24610E-02 0.25507E-02 0.26335E-02 0.26857E-02 0.27062E-02 0.27116E-02 0.27082E-02 0.26827E-02
 0.27153E-02 0.26587E-02 0.25700E-02 0.24757E-02 0.23948E-02 0.23328E-02 0.22911E-02 0.22706E-02 0.22719E-02 0.22951E-02
 0.23388E-02 0.24025E-02 0.24874E-02 0.25842E-02 0.26652E-02 0.27065E-02 0.27139E-02 0.27134E-02 0.27216E-02 0.27304E-02
 0.26662E-02 0.26893E-02 0.26599E-02 0.25800E-02 0.24821E-02 0.23947E-02 0.23281E-02 0.22851E-02 0.22711E-02 0.22888E-02
 0.23343E-02 0.24036E-02 0.24955E-02 0.25934E-02 0.26559E-02 0.26559E-02 0.26170E-02 0.25873E-02 0.25905E-02 0.26225E-02
 0.24876E-02 0.25698E-02 0.26462E-02 0.26525E-02 0.25802E-02 0.24755E-02 0.23807E-02 0.23110E-02 0.22739E-02 0.22764E-02
 0.23172E-02 0.23899E-02 0.24904E-02 0.25942E-02 0.26392E-02 0.25834E-02 0.24766E-02 0.24114E-02 0.24110E-02 0.24388E-02
 0.23620E-02 0.23992E-02 0.25222E-02 0.26452E-02 0.26599E-02 0.25698E-02 0.24498E-02 0.23510E-02 0.22877E-02 0.22673E-02
 0.22930E-02 0.23597E-02 0.24647E-02 0.25875E-02 0.26486E-02 0.25657E-02 0.23885E-02 0.22800E-02 0.23032E-02 0.23543E-02
 0.23993E-02 0.23437E-02 0.23924E-02 0.25634E-02 0.26869E-02 0.26580E-02 0.25351E-02 0.24119E-02 0.23248E-02 0.22797E-02
 0.22833E-02 0.23329E-02 0.24245E-02 0.25543E-02 0.26601E-02 0.26187E-02 0.24127E-02 0.22337E-02 0.22550E-02 0.23777E-02
 0.61341E-02 0.60816E-02 0.58632E-02 0.54117E-02 0.48792E-02 0.44475E-02 0.41380E-02 0.38890E-02 0.36881E-02 0.35616E-02
 0.35204E-02 0.35661E-02 0.37029E-02 0.39105E-02 0.41693E-02 0.45299E-02 0.50525E-02 0.56289E-02 0.60191E-02 0.61399E-02
 0.61454E-02 0.61159E-02 0.59683E-02 0.55999E-02 0.50751E-02 0.45859E-02 0.42242E-02 0.39535E-02 0.37452E-02 0.36136E-02
 0.35561E-02 0.35525E-02 0.36113E-02 0.37550E-02 0.39753E-02 0.42740E-02 0.47076E-02 0.52747E-02 0.57971E-02 0.60808E-02
 0.60316E-02 0.60681E-02 0.59491E-02 0.56407E-02 0.51701E-02 0.46836E-02 0.42973E-02 0.40165E-02 0.38221E-02 0.37206E-02
 0.36937E-02 0.36871E-02 0.36774E-02 0.37063E-02 0.38242E-02 0.40404E-02 0.43636E-02 0.48211E-02 0.53582E-02 0.58031E-02
 0.56460E-02 0.58136E-02 0.57686E-02 0.55243E-02 0.51306E-02 0.46988E-02 0.43315E-02 0.40619E-02 0.38980E-02 0.38492E-02
 0.38841E-02 0.39263E-02 0.39142E-02 0.38557E-02 0.38235E-02 0.38925E-02 0.40866E-02 0.44010E-02 0.48237E-02 0.52836E-02
 0.50657E-02 0.53185E-02 0.53854E-02 0.52485E-02 0.49616E-02 0.46204E-02 0.43066E-02 0.40643E-02 0.39327E-02 0.39369E-02
 0.40326E-02 0.41289E-02 0.41634E-02 0.41152E-02 0.40023E-02 0.39045E-02 0.39219E-02 0.40864E-02 0.43648E-02 0.47133E-02
 0.45340E-02 0.47666E-02 0.48986E-02 0.48754E-02 0.47126E-02 0.44783E-02 0.42334E-02 0.40207E-02 0.39043E-02 0.39407E-02
 0.40830E-02 0.42107E-02 0.42704E-02 0.42780E-02 0.42125E-02 0.40556E-02 0.39036E-02 0.38915E-02 0.40395E-02 0.42744E-02
 0.41674E-02 0.43462E-02 0.44778E-02 0.45207E-02 0.44583E-02 0.43193E-02 0.41409E-02 0.39551E-02 0.38315E-02 0.38619E-02
 0.40326E-02 0.41966E-02 0.42606E-02 0.42820E-02 0.42948E-02 0.42089E-02 0.39992E-02 0.38217E-02 0.38227E-02 0.39733E-02
 0.39076E-02 0.40627E-02 0.41806E-02 0.42461E-02 0.42415E-02 0.41688E-02 0.40451E-02 0.38888E-02 0.37530E-02 0.37411E-02
 0.38995E-02 0.41119E-02 0.42239E-02 0.42457E-02 0.42743E-02 0.42677E-02 0.41079E-02 0.38526E-02 0.37052E-02 0.37534E-02
 0.37013E-02 0.38379E-02 0.39517E-02 0.40257E-02 0.40504E-02 0.40199E-02 0.39398E-02 0.38206E-02 0.36922E-02 0.36335E-02
 0.37277E-02 0.39442E-02 0.41360E-02 0.42180E-02 0.42469E-02 0.42543E-02 0.41518E-02 0.39097E-02 0.36771E-02 0.36112E-02
 0.35663E-02 0.36574E-02 0.37539E-02 0.38262E-02 0.38646E-02 0.38621E-02 0.38189E-02 0.37420E-02 0.36463E-02 0.35725E-02
 0.35900E-02 0.37354E-02 0.39448E-02 0.41078E-02 0.41854E-02 0.41961E-02 0.41178E-02 0.39224E-02 0.36885E-02 0.35546E-02
 0.35227E-02 0.35566E-02 0.36122E-02 0.36626E-02 0.36972E-02 0.37085E-02 0.36940E-02 0.36569E-02 0.36052E-02 0.35543E-02
 0.35363E-02 0.35928E-02 0.37324E-02 0.39026E-02 0.40310E-02 0.40778E-02 0.40282E-02 0.38842E-02 0.36979E-02 0.35608E-02
 0.35655E-02 0.35540E-02 0.35598E-02 0.35701E-02 0.35804E-02 0.35862E-02 0.35856E-02 0.35790E-02 0.35683E-02 0.35581E-02
 0.35561E-02 0.35768E-02 0.36404E-02 0.37492E-02 0.38689E-02 0.39455E-02 0.39407E-02 0.38541E-02 0.37271E-02 0.36197E-02
 0.36921E-02 0.36468E-02 0.36048E-02 0.35666E-02 0.35370E-02 0.35174E-02 0.35105E-02 0.35188E-02 0.35394E-02 0.35695E-02
 0.36078E-02 0.36505E-02 0.36985E-02 0.37612E-02 0.38407E-02 0.39133E-02 0.39408E-02 0.39054E-02 0.38289E-02 0.37509E-02
 0.38926E-02 0.38212E-02 0.37383E-02 0.36514E-02 0.35740E-02 0.35145E-02 0.34816E-02 0.34836E-02 0.35196E-02 0.35810E-02
 0.36600E-02 0.37463E-02 0.38262E-02 0.38958E-02 0.39630E-02 0.40286E-02 0.40717E-02 0.40686E-02 0.40225E-02 0.39584E-02
 0.41419E-02 0.40470E-02 0.39356E-02 0.38093E-02 0.36843E-02 0.35783E-02 0.35061E-02 0.34820E-02 0.35118E-02 0.35880E-02
 0.36973E-02 0.38235E-02 0.39459E-02 0.40522E-02 0.41474E-02 0.42379E-02 0.43094E-02 0.43338E-02 0.43005E-02 0.42282E-02
 0.44497E-02 0.43079E-02 0.41651E-02 0.40113E-02 0.38486E-02 0.36963E-02 0.35783E-02 0.35151E-02 0.35188E-02 0.35886E-02
 0.37119E-02 0.38667E-02 0.40264E-02 0.41761E-02 0.43238E-02 0.44772E-02 0.46142E-02 0.46911E-02 0.46781E-02 0.45846E-02
 0.48742E-02 0.46449E-02 0.44271E-02 0.42304E-02 0.40380E-02 0.38481E-02 0.36839E-02 0.35739E-02 0.35378E-02 0.35823E-02
 0.37001E-02 0.38687E-02 0.40564E-02 0.42478E-02 0.44596E-02 0.47040E-02 0.49439E-02 0.51094E-02 0.51513E-02 0.50626E-02
 0.53984E-02 0.51011E-02 0.47660E-02 0.44718E-02 0.42294E-02 0.40098E-02 0.38080E-02 0.36504E-02 0.35664E-02 0.35710E-02
 0.36647E-02 0.38294E-02 0.40307E-02 0.42512E-02 0.45195E-02 0.48613E-02 0.52225E-02 0.54939E-02 0.56127E-02 0.55782E-02
 0.58494E-02 0.55922E-02 0.51902E-02 0.47663E-02 0.44252E-02 0.41624E-02 0.39334E-02 0.37365E-02 0.36035E-02 0.35597E-02
 0.36134E-02 0.37562E-02 0.39556E-02 0.41851E-02 0.44768E-02 0.48845E-02 0.53584E-02 0.57378E-02 0.59225E-02 0.59477E-02
 0.60748E-02 0.59394E-02 0.55979E-02 0.51060E-02 0.46447E-02 0.43046E-02 0.40439E-02 0.38187E-02 0.36444E-02 0.35525E-02
 0.35565E-02 0.36588E-02 0.38407E-02 0.40665E-02 0.43469E-02 0.47570E-02 0.52970E-02 0.57886E-02 0.60487E-02 0.61035E-02
 0.85209E-02 0.84573E-02 0.82991E-02 0.80519E-02 0.76829E-02 0.72024E-02 0.66910E-02 0.62359E-02 0.58878E-02 0.56731E-02
 0.56067E-02 0.56912E-02 0.59198E-02 0.62808E-02 0.67412E-02 0.72294E-02 0.76610E-02 0.80012E-02 0.82671E-02 0.84542E-02
 0.84509E-02 0.84517E-02 0.83380E-02 0.81332E-02 0.78204E-02 0.73857E-02 0.68770E-02 0.63801E-02 0.59642E-02 0.56716E-02
 0.55271E-02 0.55397E-02 0.57039E-02 0.60082E-02 0.64311E-02 0.69200E-02 0.73923E-02 0.77837E-02 0.80890E-02 0.83200E-02