VaspCalc                                
   1.00000000000000     
     3.186500    0.000000    0.000000
    -1.593250    2.759590    0.000000
     0.000000    0.000000   20.000000
   S    Mo   W 
     4     1     1
Direct
  0.659025  0.345879  0.692836
  0.659050  0.345864  0.536512
  0.997881  0.001092  0.384376
  0.997833  0.000995  0.228447
  0.664368  0.334294  0.306444
  0.992438  0.012485  0.614603
 
   20   20  126
 0.12704058590E-02 0.12821325581E-02 0.12150177145E-02 0.94620705031E-03 0.61480753429E-03
 0.41604812630E-03 0.36503360149E-03 0.36513979545E-03 0.36544673296E-03 0.36725506583E-03
 0.36723050788E-03 0.36253000604E-03 0.36232075241E-03 0.36176464386E-03 0.36776816783E-03
 0.47204559012E-03 0.76970061427E-03 0.11534813975E-02 0.13645846756E-02 0.13357119272E-02
 0.13436345838E-02 0.13160329943E-02 0.12709542508E-02 0.10615572410E-02 0.72567128834E-03
 0.46032422946E-03 0.35570663069E-03 0.34773889430E-03 0.37129229884E-03 0.41204225295E-03
 0.44530704536E-03 0.43682681152E-03 0.39576307839E-03 0.35957759422E-03 0.34290543200E-03
 0.37760968473E-03 0.55882060671E-03 0.91089736637E-03 0.12519019283E-02 0.13793500743E-02
 0.13809852427E-02 0.13771720232E-02 0.13003905612E-02 0.11018280198E-02 0.78940835026E-03
 0.50580308831E-03 0.36338572391E-03 0.34769216990E-03 0.41222465540E-03 0.53430285114E-03
 0.66157502289E-03 0.70732882509E-03 0.63463892653E-03 0.50035031922E-03 0.38924121582E-03
 0.34454357572E-03 0.40394998486E-03 0.62344946903E-03 0.96622020348E-03 0.12595495456E-02
 0.11746591584E-02 0.12866901336E-02 0.12424989618E-02 0.10568058100E-02 0.77910233699E-03
 0.51979748753E-03 0.37325576273E-03 0.35813158908E-03 0.46810539881E-03 0.69120531769E-03
 0.95298777900E-03 0.11231343672E-02 0.11054798290E-02 0.90824111140E-03 0.64141368737E-03
 0.43551820484E-03 0.35627964957E-03 0.41909755328E-03 0.62681906537E-03 0.92198005429E-03
 0.78636448419E-03 0.96718672443E-03 0.10130661605E-02 0.90076572069E-03 0.69214222918E-03
 0.49062729514E-03 0.36989403951E-03 0.35937823736E-03 0.49581666683E-03 0.79881123609E-03
 0.11797653020E-02 0.14775510094E-02 0.15811265531E-02 0.14548439195E-02 0.11300004814E-02
 0.73984746176E-03 0.45765525277E-03 0.35641593415E-03 0.40617588453E-03 0.56657951596E-03
 0.47897531737E-03 0.60801537544E-03 0.69521251783E-03 0.67474518895E-03 0.56322626422E-03
 0.43920389408E-03 0.35928634406E-03 0.34851650963E-03 0.47278199749E-03 0.80194604989E-03
 0.12567950857E-02 0.16349583016E-02 0.18242947786E-02 0.18306049362E-02 0.16282842978E-02
 0.12094145513E-02 0.73839033964E-03 0.43454894072E-03 0.34459964144E-03 0.37989283659E-03
 0.36826347829E-03 0.41441496429E-03 0.46888757284E-03 0.49026259055E-03 0.45646613260E-03
 0.40127067002E-03 0.35994964598E-03 0.34396946295E-03 0.41869219913E-03 0.70270471335E-03
 0.11778098515E-02 0.16180876332E-02 0.18503400666E-02 0.19247121569E-02 0.18860872061E-02
 0.16227768782E-02 0.11244031321E-02 0.63827046961E-03 0.38800486312E-03 0.34243460912E-03
 0.36095394965E-03 0.37865493056E-03 0.39442574808E-03 0.41074028202E-03 0.40964953950E-03
 0.39284555471E-03 0.37604043665E-03 0.35830580326E-03 0.37553814711E-03 0.55389951572E-03
 0.96780720175E-03 0.14562657389E-02 0.17702416585E-02 0.18828007861E-02 0.19145771354E-02
 0.18157271050E-02 0.14421122723E-02 0.90124064774E-03 0.49793389128E-03 0.35879961635E-03
 0.36213699041E-03 0.38327931314E-03 0.39223791544E-03 0.39805245780E-03 0.40228282990E-03
 0.39838677841E-03 0.39147242720E-03 0.37920289806E-03 0.36590485762E-03 0.43145588161E-03
 0.69764720708E-03 0.11415134048E-02 0.15483978970E-02 0.17613186554E-02 0.18312324577E-02
 0.18007043984E-02 0.15611524378E-02 0.10941101612E-02 0.63089416660E-03 0.39533523780E-03
 0.36322353382E-03 0.37680100292E-03 0.38975914644E-03 0.39367180115E-03 0.39778412158E-03
 0.39768635455E-03 0.39327706221E-03 0.38757714986E-03 0.37531547308E-03 0.37796709727E-03
 0.48234865040E-03 0.76093931320E-03 0.11394931653E-02 0.14463775908E-02 0.15983580490E-02
 0.16100489419E-02 0.14555382682E-02 0.11100888519E-02 0.70330440717E-03 0.43724377370E-03
 0.36905936190E-03 0.37083718873E-03 0.38123707460E-03 0.38391238724E-03 0.38725743018E-03
 0.38948226760E-03 0.38686898358E-03 0.38344923769E-03 0.38032376637E-03 0.37359958469E-03
 0.38665996757E-03 0.48377090376E-03 0.69874162249E-03 0.96418548962E-03 0.11665187070E-02
 0.12399577286E-02 0.11634846091E-02 0.94306860333E-03 0.65922682808E-03 0.44711495944E-03
 0.36967248403E-03 0.37199550143E-03 0.37817703418E-03 0.37799625726E-03 0.37929163849E-03
 0.38204045019E-03 0.38178190043E-03 0.37912147398E-03 0.37821267922E-03 0.37822513843E-03
 0.37418844055E-03 0.37989267077E-03 0.43455567317E-03 0.55599649497E-03 0.70107122106E-03
 0.79622750401E-03 0.79188368161E-03 0.68691833485E-03 0.53423380994E-03 0.41465473682E-03
 0.36698778307E-03 0.37716625969E-03 0.38104176272E-03 0.37814829182E-03 0.37712040377E-03
 0.37828979023E-03 0.37873667985E-03 0.37812939920E-03 0.37716732617E-03 0.37836298696E-03
 0.38064886909E-03 0.37616361750E-03 0.36783397876E-03 0.37827046813E-03 0.42088209208E-03
 0.47330261077E-03 0.49511421870E-03 0.46771417135E-03 0.41319937468E-03 0.37318489315E-03
 0.36545099127E-03 0.38363770052E-03 0.38805054952E-03 0.38296757317E-03 0.37930845741E-03
 0.37812945697E-03 0.37701043078E-03 0.37720508922E-03 0.37820484539E-03 0.37931749517E-03
 0.38356627902E-03 0.38761379045E-03 0.37968070552E-03 0.35957339744E-03 0.34547216353E-03
 0.34942077711E-03 0.35959549652E-03 0.35836036780E-03 0.34837855070E-03 0.34849282181E-03
 0.36527240944E-03 0.38419263439E-03 0.39457734520E-03 0.39218857283E-03 0.38615693672E-03
 0.38183389896E-03 0.37837700066E-03 0.37697881631E-03 0.37878864355E-03 0.38197186409E-03
 0.38699827572E-03 0.39337550380E-03 0.39206007730E-03 0.37707159370E-03 0.36014870673E-03
 0.35736576601E-03 0.36626230433E-03 0.36975726100E-03 0.36151055211E-03 0.35541634064E-03
 0.41484372876E-03 0.39741913097E-03 0.39896779525E-03 0.40148471680E-03 0.39668998406E-03
 0.38861247989E-03 0.38178562713E-03 0.37805471577E-03 0.37829420206E-03 0.38220154898E-03
 0.38961249272E-03 0.39798850832E-03 0.39957657428E-03 0.39428095192E-03 0.39979943923E-03
 0.43190008338E-03 0.47816452854E-03 0.50616861546E-03 0.49532033294E-03 0.45494395341E-03
 0.60676772239E-03 0.50223862057E-03 0.43619203235E-03 0.41260505634E-03 0.40559796987E-03
 0.39657430892E-03 0.38604577372E-03 0.37919037624E-03 0.37708084311E-03 0.37937980775E-03
 0.38729835746E-03 0.39799580250E-03 0.40350540591E-03 0.41073758681E-03 0.45233282700E-03
 0.54878191492E-03 0.66796677437E-03 0.75127442221E-03 0.76477948978E-03 0.70878929965E-03
 0.92979359820E-03 0.75705440839E-03 0.57460006219E-03 0.45605383724E-03 0.41218115943E-03
 0.40113013036E-03 0.39206919042E-03 0.38288537882E-03 0.37812036474E-03 0.37810857804E-03
 0.38395769147E-03 0.39371901697E-03 0.39893491289E-03 0.41131059140E-03 0.48432295747E-03
 0.65524900267E-03 0.86811801562E-03 0.10189857604E-02 0.10669624930E-02 0.10345637415E-02
 0.11979129292E-02 0.10663414172E-02 0.82319713319E-03 0.57552100150E-03 0.43565294046E-03
 0.39826736583E-03 0.39453820476E-03 0.38812649832E-03 0.38094571808E-03 0.37818214611E-03
 0.38137414242E-03 0.38986616652E-03 0.39286089803E-03 0.39499136470E-03 0.46375831332E-03
 0.67635192563E-03 0.97996359267E-03 0.12043913972E-02 0.12664627655E-02 0.12446273547E-02
 0.12729489153E-02 0.12486605256E-02 0.10731992069E-02 0.76346844132E-03 0.50398796726E-03
 0.39681355194E-03 0.38408869547E-03 0.38372028764E-03 0.37652600252E-03 0.37111314365E-03
 0.37043683793E-03 0.37684435381E-03 0.38380580240E-03 0.37948274343E-03 0.41176579241E-03
 0.59456199524E-03 0.94075006153E-03 0.12556268481E-02 0.13516046833E-02 0.12988220748E-02
 0.58757603369E-04 0.66559537970E-04 0.15018676892E-03 0.35897729298E-03 0.57204742610E-03
 0.66638277528E-03 0.65854166875E-03 0.62545407913E-03 0.59765050868E-03 0.57485014137E-03
 0.56762985308E-03 0.58102955706E-03 0.60314584633E-03 0.63117113796E-03 0.65890249911E-03
 0.62150040850E-03 0.44546995521E-03 0.19221666402E-03 0.34191872764E-04 0.28382408232E-04
 0.23575260769E-04 0.42632742066E-04 0.94446363782E-04 0.26107209576E-03 0.49051522155E-03
 0.64284148919E-03 0.67348658318E-03 0.64221803633E-03 0.59678510451E-03 0.54687684813E-03
 0.51328496367E-03 0.52174293720E-03 0.56341025225E-03 0.60966814790E-03 0.64933624931E-03
 0.65758626151E-03 0.56258456119E-03 0.34058226929E-03 0.11116916689E-03 0.13372899701E-04
 0.22443224012E-04 0.24461704605E-04 0.82970841575E-04 0.22807050785E-03 0.44031501166E-03
 0.61307655368E-03 0.67532984336E-03 0.65140755267E-03 0.58454350484E-03 0.49304818932E-03
 0.40838738656E-03 0.38214455811E-03 0.43318027873E-03 0.52405745701E-03 0.60644848605E-03
 0.65708644718E-03 0.64383160683E-03 0.51741765087E-03 0.29855374034E-03 0.10523330296E-03
 0.17486265305E-03 0.10973060829E-03 0.14359912684E-03 0.26685401869E-03 0.44515635892E-03
 0.60088456794E-03 0.67064160260E-03 0.65176497139E-03 0.56623243038E-03 0.43160155785E-03
 0.28710040029E-03 0.19882179468E-03 0.21528789314E-03 0.32746687556E-03 0.47515321443E-03
 0.59554706677E-03 0.65630907906E-03 0.63496275661E-03 0.51429939402E-03 0.33100793503E-03
 0.43038059176E-03 0.33155053150E-03 0.31299144468E-03 0.38336244297E-03 0.50501836059E-03
 0.61582875793E-03 0.66897716965E-03 0.65026279103E-03 0.55552384117E-03 0.39076661275E-03
 0.20254441578E-03 0.62171244394E-04 0.18337512557E-04 0.86439954885E-04 0.24849262737E-03
 0.44164259349E-03 0.58938685065E-03 0.65587534768E-03 0.64142596911E-03 0.55517850696E-03
 0.61442452522E-03 0.55632719826E-03 0.52027278562E-03 0.53579018921E-03 0.59052788873E-03
 0.64472580167E-03 0.66900545421E-03 0.64934922118E-03 0.56062417306E-03 0.38656753539E-03
 0.17566255259E-03 0.14111470321E-04 -.62152235998E-04 -.61751421995E-04 0.30029621001E-04
 0.22104507832E-03 0.44151833134E-03 0.59518478457E-03 0.65632401667E-03 0.65488725600E-03
 0.65788922209E-03 0.65464308339E-03 0.64471125471E-03 0.64228949187E-03 0.65269270079E-03
 0.66267489361E-03 0.66160743681E-03 0.64357994923E-03 0.57624469692E-03 0.41781928105E-03
 0.19837332757E-03 0.22439271476E-04 -.55879143417E-04 -.80936934808E-04 -.72680252899E-04
 0.31717635494E-04 0.24898738798E-03 0.47454694472E-03 0.60600183309E-03 0.64917484782E-03
 0.63171898989E-03 0.64523417818E-03 0.65878065642E-03 0.66549758168E-03 0.66519886335E-03
 0.65748213268E-03 0.64451482299E-03 0.62993620284E-03 0.59010882884E-03 0.47124518525E-03
 0.26584114669E-03 0.66131789865E-04 -.33342835096E-04 -.57204264920E-04 -.76012759990E-04
 -.55905098066E-04 0.89074999309E-04 0.32683622209E-03 0.52284393662E-03 0.60947271929E-03
 0.60324480702E-03 0.61393988165E-03 0.62794941871E-03 0.64127970064E-03 0.64550681123E-03
 0.63919658468E-03 0.62639196953E-03 0.61448270468E-03 0.59513637887E-03 0.52559179790E-03
 0.36892624092E-03 0.16783934686E-03 0.22862340757E-04 -.29833339454E-04 -.47441904272E-04
 -.52937574750E-04 0.23097515466E-04 0.21466485425E-03 0.43064348284E-03 0.56209310471E-03
 0.58031211520E-03 0.59551401847E-03 0.60432307109E-03 0.61515629564E-03 0.62183255790E-03
 0.62117318369E-03 0.61393174468E-03 0.60439783717E-03 0.59375902524E-03 0.56255690559E-03
 0.47440540727E-03 0.32378298636E-03 0.16685453341E-03 0.67639884875E-04 0.28336995726E-04
 0.21489951592E-04 0.65963888275E-04 0.19704088189E-03 0.37776367094E-03 0.51873106457E-03
 0.56590677148E-03 0.58447910985E-03 0.59186146701E-03 0.59877771872E-03 0.60351699373E-03
 0.60496710893E-03 0.60308605755E-03 0.59803182634E-03 0.59118574593E-03 0.57936817598E-03
 0.54632208940E-03 0.47275192345E-03 0.36547234211E-03 0.26269723384E-03 0.19771892210E-03
 0.17670415117E-03 0.20204236908E-03 0.28295734713E-03 0.40232999501E-03 0.50870815816E-03
 0.57285978895E-03 0.58269463622E-03 0.58620193816E-03 0.58895153265E-03 0.58974299506E-03
 0.58930310774E-03 0.58938857391E-03 0.58949800834E-03 0.58826062060E-03 0.58540921412E-03
 0.57905656469E-03 0.56108846774E-03 0.52226908718E-03 0.46658203271E-03 0.41322750069E-03
 0.38265515880E-03 0.38659484614E-03 0.42617196168E-03 0.48715951714E-03 0.54240731252E-03
 0.59683739294E-03 0.59351782201E-03 0.59075078857E-03 0.58816327578E-03 0.58357493692E-03
 0.57884554835E-03 0.57719269530E-03 0.57934406951E-03 0.58389179983E-03 0.58831779491E-03
 0.59127493669E-03 0.59358405619E-03 0.59403527779E-03 0.58770688914E-03 0.57288294398E-03
 0.55691662791E-03 0.55164790851E-03 0.56220790021E-03 0.58085250149E-03 0.59433719795E-03
 0.62589962945E-03 0.61172279088E-03 0.60409959785E-03 0.59815582643E-03 0.58864812069E-03
 0.57830052242E-03 0.57243134295E-03 0.57284399016E-03 0.57943469099E-03 0.58970094237E-03
 0.59847458203E-03 0.60500155555E-03 0.61479854271E-03 0.62967342843E-03 0.64300866191E-03
 0.64880287284E-03 0.64967028703E-03 0.65085568381E-03 0.65038391739E-03 0.64179176026E-03
 0.65923622100E-03 0.63855688762E-03 0.62370716700E-03 0.61440789949E-03 0.60279953538E-03
 0.58795446394E-03 0.57637121665E-03 0.57249341511E-03 0.57735512007E-03 0.58971283485E-03
 0.60368342022E-03 0.61457602066E-03 0.62660042749E-03 0.64459785533E-03 0.66288047817E-03
 0.67241515345E-03 0.67381623163E-03 0.67512361382E-03 0.67817220204E-03 0.67478387546E-03
 0.66901815197E-03 0.66821816198E-03 0.65246769116E-03 0.63550727002E-03 0.62062462351E-03
 0.60410338306E-03 0.58793630238E-03 0.57834666990E-03 0.57899072908E-03 0.58961002133E-03
 0.60555976967E-03 0.62166502540E-03 0.63897990174E-03 0.65752720855E-03 0.66605141282E-03
 0.65374311718E-03 0.62937838531E-03 0.61522724559E-03 0.62445639029E-03 0.64951525482E-03
 0.58106720391E-03 0.64615526786E-03 0.67161204911E-03 0.66162107652E-03 0.64029497759E-03
 0.62057610565E-03 0.60272994776E-03 0.58867624129E-03 0.58369652303E-03 0.59000509243E-03
 0.60405177524E-03 0.62226337488E-03 0.64518116204E-03 0.66570077776E-03 0.65884901909E-03
 0.60624379850E-03 0.52880631701E-03 0.47137055652E-03 0.46347885481E-03 0.50715553815E-03
 0.37418858422E-03 0.50688936831E-03 0.62297973610E-03 0.67138986186E-03 0.66167170927E-03
 0.63545206913E-03 0.61420742033E-03 0.59807929161E-03 0.58823047064E-03 0.58909545440E-03
 0.59916443456E-03 0.61555505829E-03 0.64097957706E-03 0.66612942547E-03 0.64978570527E-03
 0.55558735274E-03 0.41354505010E-03 0.29977127275E-03 0.25760967040E-03 0.28441320347E-03
 0.16404123213E-03 0.28793664674E-03 0.47222190778E-03 0.62148801591E-03 0.67119100666E-03
 0.65240560707E-03 0.62324383228E-03 0.60365778164E-03 0.59061769323E-03 0.58614737659E-03
 0.59188577911E-03 0.60447417946E-03 0.62763864554E-03 0.65892668857E-03 0.65082078406E-03
 0.53878112014E-03 0.34251025250E-03 0.17489040787E-03 0.10901628202E-03 0.11447959147E-03
 0.72944571166E-04 0.12283677047E-03 0.28179214110E-03 0.50006275072E-03 0.64303942175E-03
 0.66764214164E-03 0.63792799034E-03 0.61095618159E-03 0.59341973950E-03 0.58296363294E-03
 0.58452940310E-03 0.59537244677E-03 0.61348997361E-03 0.64479640375E-03 0.65795700199E-03
 0.56951859953E-03 0.35495696660E-03 0.13463820866E-03 0.42657052916E-04 0.53927126046E-04
 0.14134179343E-02 0.13727749400E-02 0.12723782632E-02 0.11675607753E-02 0.11005999314E-02
 0.10629042412E-02 0.10270097193E-02 0.98868985318E-03 0.96047784917E-03 0.94652250272E-03
 0.94200561639E-03 0.94597258163E-03 0.96176979053E-03 0.99151703963E-03 0.10334064373E-02
 0.10848203121E-02 0.11454766063E-02 0.12187488193E-02 0.13033321554E-02 0.13803632387E-02
 0.13792117172E-02 0.13761269684E-02 0.13124206071E-02 0.12203060826E-02 0.11428434361E-02
 0.10910201561E-02 0.10484997626E-02 0.10055884117E-02 0.96707738068E-03 0.93816757761E-03
 0.92047332536E-03 0.91851350224E-03 0.93534573617E-03 0.96719398410E-03 0.10091974042E-02
 0.10613628411E-02 0.11237839864E-02 0.11918145196E-02 0.12623314085E-02 0.13310907210E-02
 0.13038488824E-02 0.13174849101E-02 0.12897948941E-02 0.12304297248E-02 0.11666974381E-02
 0.11133864782E-02 0.10657234295E-02 0.10153554485E-02 0.95868322471E-03 0.89765127392E-03
 0.84425379119E-03 0.81964069664E-03 0.83836547230E-03 0.89223795646E-03 0.95783393591E-03
 0.10208266537E-02 0.10838509684E-02 0.11492409723E-02 0.12104949163E-02 0.12632928382E-02
 0.12227328696E-02 0.12342561705E-02 0.12255198970E-02 0.11974899818E-02 0.11596767350E-02
 0.11190086251E-02 0.10744113753E-02 0.10193545256E-02 0.94158620126E-03 0.83615741259E-03
 0.72440002663E-03 0.64851808354E-03 0.64391289865E-03 0.71482718879E-03 0.82902060242E-03
 0.94030360880E-03 0.10256759150E-02 0.10927609332E-02 0.11503151012E-02 0.11945750920E-02
 0.11504459098E-02 0.11566597332E-02 0.11517631996E-02 0.11416528724E-02 0.11269753835E-02
 0.11042007213E-02 0.10707465132E-02 0.10211144942E-02 0.93420728026E-03 0.79163880312E-03
 0.61843076585E-03 0.47755233992E-03 0.42123274523E-03 0.46870778419E-03 0.60691605157E-03
 0.78357472038E-03 0.93203212892E-03 0.10260398400E-02 0.10848179781E-02 0.11264266475E-02
 0.10874464448E-02 0.10959242527E-02 0.10917851825E-02 0.10869546043E-02 0.10843828812E-02
 0.10753020321E-02 0.10543117949E-02 0.10192515910E-02 0.94557279251E-03 0.79458949419E-03
 0.57926436073E-03 0.38057172836E-03 0.26979174849E-03 0.26548901812E-03 0.36990237607E-03
 0.56703408861E-03 0.78517717440E-03 0.94158284180E-03 0.10214135744E-02 0.10623486793E-02
 0.10334912735E-02 0.10478691564E-02 0.10493194772E-02 0.10458845620E-02 0.10461009399E-02
 0.10433885341E-02 0.10298839234E-02 0.10087578958E-02 0.96483465455E-03 0.84462272206E-03
 0.62567751586E-03 0.38418232182E-03 0.22320132486E-03 0.17101176593E-03 0.21724045588E-03
 0.37306388072E-03 0.61187123048E-03 0.83291045693E-03 0.95929103178E-03 0.10092205315E-02
 0.99086543921E-03 0.10065127993E-02 0.10152994780E-02 0.10155124578E-02 0.10154865278E-02
 0.10146733500E-02 0.10046541625E-02 0.98987378539E-03 0.97286648594E-03 0.90963824515E-03
 0.73966449622E-03 0.49066941595E-03 0.27822544959E-03 0.17562561848E-03 0.17415293753E-03
 0.27218737225E-03 0.47797180390E-03 0.72293200773E-03 0.89626502499E-03 0.96782675373E-03
 0.96159998733E-03 0.97243816058E-03 0.98366417236E-03 0.98793894791E-03 0.98794734802E-03
 0.98809539497E-03 0.98259077971E-03 0.97042233767E-03 0.96382737490E-03 0.94971197480E-03
 0.86502253022E-03 0.67304384022E-03 0.44283974477E-03 0.28229584014E-03 0.23046727030E-03
 0.28062709902E-03 0.43508069251E-03 0.65689930260E-03 0.84617463412E-03 0.93774163633E-03
 0.94664515925E-03 0.95043771950E-03 0.95782921155E-03 0.96274275543E-03 0.96249903010E-03
 0.96263661043E-03 0.96239049222E-03 0.95608266388E-03 0.94992768127E-03 0.95352414885E-03
 0.93924247135E-03 0.84914177548E-03 0.67694000049E-03 0.49908782940E-03 0.39625489570E-03
 0.39590177921E-03 0.49537921196E-03 0.66545906405E-03 0.83105458565E-03 0.92314839330E-03
 0.94352746515E-03 0.94140438967E-03 0.94275866503E-03 0.94461677989E-03 0.94266604783E-03
 0.94105383914E-03 0.94281951079E-03 0.94419868788E-03 0.94176621996E-03 0.94303616999E-03
 0.95205731821E-03 0.94073118763E-03 0.86994653184E-03 0.74921999321E-03 0.63951142005E-03
 0.59636654124E-03 0.63732645545E-03 0.74217181685E-03 0.85696556086E-03 0.92654578986E-03
 0.94822965502E-03 0.94142973466E-03 0.93822142703E-03 0.93586407855E-03 0.93064936337E-03
 0.92620798271E-03 0.92642276138E-03 0.93117704280E-03 0.93597531410E-03 0.93791705703E-03
 0.94329526960E-03 0.95461499708E-03 0.95284949958E-03 0.91616306258E-03 0.85506464396E-03
 0.80830547526E-03 0.80696859941E-03 0.85049342581E-03 0.90809918462E-03 0.94360286167E-03
 0.96155404263E-03 0.94930658094E-03 0.94195694430E-03 0.93568783073E-03 0.92658918452E-03
 0.91859373966E-03 0.91594010774E-03 0.91929446936E-03 0.92747738882E-03 0.93609106196E-03
 0.94200785103E-03 0.95045627448E-03 0.96512541021E-03 0.97568487135E-03 0.96990141118E-03
 0.95299936826E-03 0.94311410108E-03 0.95015311526E-03 0.96504566988E-03 0.97044479943E-03
 0.98929906376E-03 0.97030766118E-03 0.95568213267E-03 0.94333695774E-03 0.93001415480E-03
 0.91821798171E-03 0.91204853441E-03 0.91251239041E-03 0.91938642923E-03 0.93137357863E-03
 0.94446644790E-03 0.95654712870E-03 0.97128921901E-03 0.99120633789E-03 0.10105941469E-02
 0.10218154312E-02 0.10244524634E-02 0.10229674021E-02 0.10183345180E-02 0.10072822408E-02
 0.10274083593E-02 0.10047511967E-02 0.98232774911E-03 0.96068143231E-03 0.94097955334E-03
 0.92517539196E-03 0.91514671573E-03 0.91210621880E-03 0.91609558842E-03 0.92667763305E-03
 0.94314632180E-03 0.96299825869E-03 0.98369009338E-03 0.10058432598E-02 0.10303996007E-02
 0.10538792183E-02 0.10699108630E-02 0.10738684617E-02 0.10657006263E-02 0.10488243999E-02
 0.10617517425E-02 0.10372070572E-02 0.10135449550E-02 0.98713549776E-03 0.96061810213E-03
 0.93934615082E-03 0.92527369435E-03 0.91837151050E-03 0.91884282326E-03 0.92656534357E-03
 0.94148222512E-03 0.96336793024E-03 0.98927224173E-03 0.10155200192E-02 0.10423855753E-02
 0.10717582320E-02 0.10990083980E-02 0.11137058547E-02 0.11091412912E-02 0.10883434525E-02
 0.10964450248E-02 0.10593910289E-02 0.10343304053E-02 0.10129970713E-02 0.98714456416E-03
 0.96067732547E-03 0.94112203367E-03 0.93019373866E-03 0.92686250426E-03 0.93102362876E-03
 0.94312422248E-03 0.96325654496E-03 0.98906987335E-03 0.10157788734E-02 0.10433770492E-02
 0.10777224997E-02 0.11178860855E-02 0.11504999433E-02 0.11586897104E-02 0.11365108185E-02
 0.11622203830E-02 0.10971631778E-02 0.10517561852E-02 0.10305095334E-02 0.10130298639E-02
 0.98708896959E-03 0.96067981128E-03 0.94336462071E-03 0.93578973472E-03 0.93608759413E-03
 0.94491515005E-03 0.96331979699E-03 0.98897381203E-03 0.10157285064E-02 0.10425659592E-02
 0.10788571342E-02 0.11311187382E-02 0.11879652759E-02 0.12228554768E-02 0.12138205054E-02
 0.12695277662E-02 0.11821642012E-02 0.10979401006E-02 0.10527483120E-02 0.10348193539E-02
 0.10134053623E-02 0.98211968646E-03 0.95556435427E-03 0.94189472007E-03 0.93828145608E-03
 0.94292537689E-03 0.95817630454E-03 0.98448431535E-03 0.10157952773E-02 0.10468446199E-02
 0.10845851557E-02 0.11423154577E-02 0.12183961003E-02 0.12862415573E-02 0.13099964310E-02
 0.13728641710E-02 0.12948787566E-02 0.11841747950E-02 0.11003463593E-02 0.10613196503E-02
 0.10373791697E-02 0.10044100305E-02 0.97012095639E-03 0.94910196199E-03 0.94123677479E-03
 0.94144753730E-03 0.95074599186E-03 0.97312469595E-03 0.10072510962E-02 0.10467597110E-02
 0.10909394866E-02 0.11493282980E-02 0.12292475036E-02 0.13169436748E-02 0.13773284311E-02
 0.23002346785E-02 0.23287121186E-02 0.23285714876E-02 0.21666782882E-02 0.19035633917E-02
 0.16921295803E-02 0.15839336515E-02 0.15297762261E-02 0.14894642168E-02 0.14625198784E-02
 0.14537150490E-02 0.14632172156E-02 0.14926337145E-02 0.15338994899E-02 0.15910609238E-02
 0.17226988041E-02 0.19803494610E-02 0.22711237476E-02 0.24088863095E-02 0.23616575356E-02
 0.23676379260E-02 0.23497524992E-02 0.23435946065E-02 0.22224593181E-02 0.19762423477E-02
 0.17367840966E-02 0.15937999442E-02 0.15267113516E-02 0.14967315908E-02 0.14940498297E-02
 0.15038973321E-02 0.15016367572E-02 0.14905713147E-02 0.14965515390E-02 0.15304483002E-02
 0.16089751367E-02 0.17864973810E-02 0.20690447897E-02 0.23222696209E-02 0.24057250464E-02
 0.24187622965E-02 0.24187419432E-02 0.23728802416E-02 0.22416843416E-02 0.20098968481E-02
 0.17667380222E-02 0.16030765283E-02 0.15303312494E-02 0.15326862411E-02 0.16009095710E-02
 0.16924897848E-02 0.17320046892E-02 0.16826144405E-02 0.15890750592E-02 0.15270316331E-02
 0.15345461124E-02 0.16265623051E-02 0.18260223994E-02 0.21003075410E-02 0.23262544725E-02
 0.22808778500E-02 0.23779744065E-02 0.23538182833E-02 0.22179583281E-02 0.19994151782E-02
 0.17720676258E-02 0.16084573248E-02 0.15384185240E-02 0.15826091208E-02 0.17485287472E-02
 0.19718939735E-02 0.21284322573E-02 0.21220255649E-02 0.19544074947E-02 0.17284449254E-02
 0.15718254320E-02 0.15432665840E-02 0.16348229002E-02 0.18271613201E-02 0.20735344094E-02
 0.19860302313E-02 0.21469342723E-02 0.21963682110E-02 0.21117334309E-02 0.19364744483E-02
 0.17481922094E-02 0.16041723342E-02 0.15376311547E-02 0.16059463933E-02 0.18522436474E-02
 0.22023227250E-02 0.24934018093E-02 0.26026918802E-02 0.24881854165E-02 0.21840324255E-02
 0.18277701042E-02 0.15928414151E-02 0.15429875699E-02 0.16269670421E-02 0.17887674913E-02
 0.17238811965E-02 0.18518821018E-02 0.19386585394E-02 0.19275741098E-02 0.18275490552E-02
 0.17011273507E-02 0.15931969895E-02 0.15275075664E-02 0.15814362627E-02 0.18511533781E-02
 0.22830254343E-02 0.26727313126E-02 0.28796615444E-02 0.28885870133E-02 0.26806726217E-02
 0.22677504486E-02 0.18254835424E-02 0.15700729684E-02 0.15338638459E-02 0.16090427828E-02
 0.15902825390E-02 0.16533477512E-02 0.17139224711E-02 0.17388580368E-02 0.17064307930E-02
 0.16443523274E-02 0.15813186258E-02 0.15221073350E-02 0.15304928256E-02 0.17471867716E-02
 0.21936820757E-02 0.26578854415E-02 0.29319075577E-02 0.30208920308E-02 0.29626864488E-02
 0.26744519686E-02 0.21762553416E-02 0.17231197894E-02 0.15248573108E-02 0.15296345367E-02
 0.15331399684E-02 0.15690170728E-02 0.15916242182E-02 0.16100178653E-02 0.16088983784E-02
 0.15894810411E-02 0.15651127462E-02 0.15258424951E-02 0.14937827455E-02 0.16015035304E-02
 0.19663641105E-02 0.24663926717E-02 0.28353124536E-02 0.29882637099E-02 0.30115694923E-02
 0.28732511223E-02 0.24721642955E-02 0.19430839587E-02 0.15841102194E-02 0.14952251605E-02
 0.14921922557E-02 0.15282045406E-02 0.15382854696E-02 0.15413074261E-02 0.15439159903E-02
 0.15410315577E-02 0.15372473387E-02 0.15236137732E-02 0.14868939669E-02 0.14951552980E-02
 0.16957877002E-02 0.21168158474E-02 0.25599116968E-02 0.28259604401E-02 0.29131592508E-02
 0.28550911889E-02 0.25781046840E-02 0.21038310015E-02 0.16737631349E-02 0.14882504144E-02
 0.14630394826E-02 0.14933889537E-02 0.15056289532E-02 0.15025951533E-02 0.15013986886E-02
 0.15013152398E-02 0.15024452976E-02 0.15041190747E-02 0.14893854684E-02 0.14622241994E-02
 0.15095068071E-02 0.17385254044E-02 0.21123184436E-02 0.24529037919E-02 0.26348578843E-02
 0.26436475653E-02 0.24642542141E-02 0.21059696849E-02 0.17201582129E-02 0.14983043854E-02
 0.14539942859E-02 0.14714955331E-02 0.14826037603E-02 0.14789591370E-02 0.14753588648E-02
 0.14747940876E-02 0.14753779313E-02 0.14788414905E-02 0.14813437037E-02 0.14692189619E-02
 0.14551062976E-02 0.15094696262E-02 0.16928196683E-02 0.19564845362E-02 0.21752600113E-02
 0.22582815904E-02 0.21764599682E-02 0.19511046667E-02 0.16809600679E-02 0.15006349299E-02
 0.14633896995E-02 0.14710804284E-02 0.14741250702E-02 0.14684133918E-02 0.14640328596E-02
 0.14626096377E-02 0.14626670502E-02 0.14641699239E-02 0.14684628564E-02 0.14735065467E-02
 0.14696786343E-02 0.14632030817E-02 0.14954564374E-02 0.15985152409E-02 0.17386747052E-02
 0.18373476532E-02 0.18362452635E-02 0.17349378437E-02 0.15932718322E-02 0.14922206608E-02
 0.14905613462E-02 0.14912541404E-02 0.14813843982E-02 0.14681243962E-02 0.14615235080E-02
 0.14593160376E-02 0.14585928171E-02 0.14596041611E-02 0.14617868533E-02 0.14686206000E-02
 0.14818533781E-02 0.14904067996E-02 0.14883168009E-02 0.14947747609E-02 0.15295869206E-02
 0.15777510091E-02 0.16002694930E-02 0.15772289792E-02 0.15297193862E-02 0.14965140177E-02
 0.15306757232E-02 0.15249526430E-02 0.15027603941E-02 0.14775078138E-02 0.14635525609E-02
 0.14590513668E-02 0.14572733195E-02 0.14575836576E-02 0.14596294537E-02 0.14643445413E-02
 0.14792818991E-02 0.15048367176E-02 0.15247095859E-02 0.15273781685E-02 0.15237024298E-02
 0.15284526681E-02 0.15376950562E-02 0.15381578388E-02 0.15305190179E-02 0.15275340251E-02
 0.15851820141E-02 0.15669512267E-02 0.15354709885E-02 0.14994771731E-02 0.14736499038E-02
 0.14618673649E-02 0.14579793542E-02 0.14573097111E-02 0.14586596925E-02 0.14628791032E-02
 0.14758390770E-02 0.15032081709E-02 0.15384741509E-02 0.15669244928E-02 0.15833551966E-02
 0.15948615915E-02 0.16052782952E-02 0.16094592004E-02 0.16044620321E-02 0.15954126705E-02
 0.16938777275E-02 0.16424248132E-02 0.15887145220E-02 0.15383203711E-02 0.14981293564E-02
 0.14730100623E-02 0.14619278197E-02 0.14591417859E-02 0.14594430596E-02 0.14628780095E-02
 0.14753108829E-02 0.15022405662E-02 0.15427950109E-02 0.15921438318E-02 0.16468638396E-02
 0.17019783020E-02 0.17470862034E-02 0.17703505238E-02 0.17660576246E-02 0.17377177805E-02
 0.19032876522E-02 0.18034337659E-02 0.16962595315E-02 0.16058319735E-02 0.15408241427E-02
 0.14981655040E-02 0.14737605927E-02 0.14636898433E-02 0.14616851888E-02 0.14643559826E-02
 0.14759162337E-02 0.15023373982E-02 0.15458327985E-02 0.16119696901E-02 0.17088545396E-02
 0.18264181020E-02 0.19308172436E-02 0.19913045756E-02 0.20027758409E-02 0.19725069287E-02
 0.21615554266E-02 0.20493458179E-02 0.18839268598E-02 0.17210673337E-02 0.16055039373E-02
 0.15382437040E-02 0.14996313683E-02 0.14776903446E-02 0.14683138015E-02 0.14687661418E-02
 0.14795718814E-02 0.15034803625E-02 0.15429308881E-02 0.16126843953E-02 0.17405305266E-02
 0.19242855119E-02 0.21015176712E-02 0.22031252656E-02 0.22268989729E-02 0.22116924564E-02
 0.23204187749E-02 0.22693110454E-02 0.21088652655E-02 0.18834267452E-02 0.16951568949E-02
 0.15881325101E-02 0.15354864359E-02 0.15028096231E-02 0.14813247344E-02 0.14742286759E-02
 0.14830730962E-02 0.15064110041E-02 0.15395322129E-02 0.15936139863E-02 0.17150004653E-02
 0.19346879116E-02 0.21846003305E-02 0.23363303781E-02 0.23547589093E-02 0.23292652396E-02
 0.23228710734E-02 0.23485676009E-02 0.22717603781E-02 0.20501672635E-02 0.18020724231E-02
 0.16410290767E-02 0.15664337496E-02 0.15245298437E-02 0.14904894570E-02 0.14703635659E-02
 0.14712544618E-02 0.14936788700E-02 0.15289536779E-02 0.15703447177E-02 0.16542630906E-02
 0.18490445429E-02 0.21373283258E-02 0.23629465342E-02 0.24031469072E-02 0.23379015292E-02
 0.24461806745E-02 0.23892384094E-02 0.23442962983E-02 0.24711645964E-02 0.26576391391E-02
 0.27124721501E-02 0.26204823794E-02 0.24869250042E-02 0.23763848743E-02 0.23013930399E-02
 0.22769494148E-02 0.23114347987E-02 0.23895909303E-02 0.25036946653E-02 0.26337985714E-02
 0.26774228829E-02 0.25292311344E-02 0.22906649996E-02 0.22134894890E-02 0.23436323591E-02