    6    6    1    1
  0.2931144E+02  0.3186500E-09  0.3186500E-09  0.2000000E-08  0.5000000E-15
  1.000000000000000E-004
  CAR 
 VaspCalc                                
     36     90     48
 
  0.5000000E+00  0.0000000E+00  0.0000000E+00  0.1111111E-01
    1      -11.578967   1.000000
    2      -11.358730   1.000000
    3      -11.255671   1.000000
    4      -11.101995   1.000000
    5       -5.373046   1.000000
    6       -4.827107   1.000000
    7       -4.077385   1.000000
    8       -3.881174   1.000000
    9       -3.385119   1.000000
   10       -3.044808   1.000000
   11       -2.312199   1.000000
   12       -2.235020   1.000000
   13       -1.052281   1.000000
   14       -0.906420   1.000000
   15       -0.191330   1.000000
   16       -0.033818   1.000000
   17        0.167708   1.000000
   18        0.288996   1.000000
   19        3.104404   0.000000
   20        3.619198   0.000000
   21        3.899873   0.000000
   22        4.371003   0.000000
   23        4.757883   0.000000
   24        5.174482   0.000000
   25        5.321546   0.000000
   26        5.837767   0.000000
   27        6.243713   0.000000
   28        7.131608   0.000000
   29        8.568479   0.000000
   30        8.912497   0.000000
   31        9.249007   0.000000
   32        9.647303   0.000000
   33       10.074982   0.000000
   34       10.474182   0.000000
   35       10.667700   0.000000
   36       11.252051   0.000000
   37       11.803955   0.000000
   38       11.980959   0.000000
   39       12.130132   0.000000
   40       12.529276   0.000000
   41       12.842782   0.000000
   42       13.084195   0.000000
   43       14.201854   0.000000
   44       14.644112   0.000000
   45       15.243635   0.000000
   46       15.654661   0.000000
   47       16.187589   0.000000
   48       17.238875   0.000000
 
  0.4827586E+00  0.0000000E+00  0.0000000E+00  0.1111111E-01
    1      -11.587397   1.000000
    2      -11.365691   1.000000
    3      -11.258649   1.000000
    4      -11.104721   1.000000
    5       -5.363821   1.000000
    6       -4.820056   1.000000
    7       -4.070354   1.000000
    8       -3.873947   1.000000
    9       -3.382948   1.000000
   10       -3.041509   1.000000
   11       -2.308498   1.000000
   12       -2.231492   1.000000
   13       -1.051548   1.000000
   14       -0.902581   1.000000
   15       -0.194878   1.000000
   16       -0.038294   1.000000
   17        0.157647   1.000000
   18        0.282678   1.000000
   19        3.103188   0.000000
   20        3.612414   0.000000
   21        3.894798   0.000000
   22        4.355020   0.000000
   23        4.755029   0.000000
   24        5.172521   0.000000
   25        5.319041   0.000000
   26        5.835241   0.000000
   27        6.271432   0.000000
   28        7.156064   0.000000
   29        8.568215   0.000000
   30        8.908527   0.000000
   31        9.234300   0.000000
   32        9.638851   0.000000
   33       10.070136   0.000000
   34       10.491712   0.000000
   35       10.671149   0.000000
   36       11.234133   0.000000
   37       11.819695   0.000000
   38       11.961252   0.000000
   39       12.169385   0.000000
   40       12.543593   0.000000
   41       12.869411   0.000000
   42       13.113949   0.000000
   43       14.151787   0.000000
   44       14.709458   0.000000
   45       15.211649   0.000000
   46       15.662007   0.000000
   47       16.173709   0.000000
   48       17.245341   0.000000
 
  0.4655172E+00  0.0000000E+00  0.0000000E+00  0.1111111E-01
    1      -11.612427   1.000000
    2      -11.386372   1.000000
    3      -11.267573   1.000000
    4      -11.112844   1.000000
    5       -5.336423   1.000000
    6       -4.799127   1.000000
    7       -4.049395   1.000000
    8       -3.852419   1.000000
    9       -3.376698   1.000000
   10       -3.031877   1.000000
   11       -2.297402   1.000000
   12       -2.220922   1.000000
   13       -1.049086   1.000000
   14       -0.891280   1.000000
   15       -0.205573   1.000000
   16       -0.051735   1.000000
   17        0.129159   1.000000
   18        0.263805   1.000000
   19        3.099755   0.000000
   20        3.592601   0.000000
   21        3.879985   0.000000
   22        4.310930   0.000000
   23        4.745296   0.000000
   24        5.166590   0.000000
   25        5.310706   0.000000
   26        5.827603   0.000000
   27        6.351681   0.000000
   28        7.227880   0.000000
   29        8.567654   0.000000
   30        8.898440   0.000000
   31        9.194084   0.000000
   32        9.608253   0.000000
   33       10.065005   0.000000
   34       10.528551   0.000000
   35       10.676178   0.000000
   36       11.212084   0.000000
   37       11.866522   0.000000
   38       11.908801   0.000000
   39       12.263560   0.000000
   40       12.586233   0.000000
   41       12.944397   0.000000
   42       13.201442   0.000000
   43       14.055601   0.000000
   44       14.848646   0.000000
   45       15.128455   0.000000
   46       15.674607   0.000000
   47       16.130792   0.000000
   48       17.165740   0.000000
 
  0.4482759E+00  0.0000000E+00  0.0000000E+00  0.1111111E-01
    1      -11.653274   1.000000
    2      -11.420191   1.000000
    3      -11.282365   1.000000
    4      -11.126211   1.000000
    5       -5.291638   1.000000
    6       -4.764950   1.000000
    7       -4.014951   1.000000
    8       -3.817053   1.000000
    9       -3.367100   1.000000
   10       -3.016693   1.000000
   11       -2.278972   1.000000
   12       -2.203360   1.000000
   13       -1.044178   1.000000
   14       -0.873006   1.000000
   15       -0.223516   1.000000
   16       -0.074148   1.000000
   17        0.086630   1.000000
   18        0.233164   1.000000
   19        3.094703   0.000000
   20        3.561268   0.000000
   21        3.856607   0.000000
   22        4.247427   0.000000
   23        4.726510   0.000000
   24        5.156566   0.000000
   25        5.294751   0.000000
   26        5.814716   0.000000
   27        6.476914   0.000000
   28        7.342608   0.000000
   29        8.567142   0.000000
   30        8.886630   0.000000
   31        9.136369   0.000000
   32        9.554275   0.000000
   33       10.058936   0.000000
   34       10.564514   0.000000
   35       10.676477   0.000000
   36       11.233772   0.000000
   37       11.848786   0.000000
   38       11.943418   0.000000
   39       12.357785   0.000000
   40       12.656063   0.000000
   41       13.071211   0.000000
   42       13.333238   0.000000
   43       13.968445   0.000000
   44       14.947899   0.000000
   45       15.067740   0.000000
   46       15.679391   0.000000
   47       16.062329   0.000000
   48       17.096253   0.000000
 
  0.4310345E+00  0.0000000E+00  0.0000000E+00  0.1111111E-01
    1      -11.708749   1.000000
    2      -11.466294   1.000000
    3      -11.302812   1.000000
    4      -11.144575   1.000000
    5       -5.230733   1.000000
    6       -4.718540   1.000000
    7       -3.967780   1.000000
    8       -3.768696   1.000000
    9       -3.355197   1.000000
   10       -2.997232   1.000000
   11       -2.253288   1.000000
   12       -2.178890   1.000000
   13       -1.035941   1.000000
   14       -0.848303   1.000000
   15       -0.248866   1.000000
   16       -0.105528   1.000000
   17        0.035853   1.000000
   18        0.193035   1.000000
   19        3.088973   0.000000
   20        3.520437   0.000000
   21        3.826486   0.000000
   22        4.173233   0.000000
   23        4.697121   0.000000
   24        5.142275   0.000000
   25        5.269347   0.000000
   26        5.796378   0.000000
   27        6.637436   0.000000
   28        7.493224   0.000000
   29        8.566006   0.000000
   30        8.877652   0.000000
   31        9.069194   0.000000
   32        9.488960   0.000000
   33       10.028374   0.000000
   34       10.593548   0.000000
   35       10.689255   0.000000
   36       11.301602   0.000000
   37       11.806959   0.000000
   38       12.047786   0.000000
   39       12.418097   0.000000
   40       12.751319   0.000000
   41       13.255341   0.000000
   42       13.485015   0.000000
   43       13.913762   0.000000
   44       14.824963   0.000000
   45       15.193387   0.000000
   46       15.675390   0.000000
   47       15.968623   0.000000
   48       17.055075   0.000000
 
  0.4137931E+00  0.0000000E+00  0.0000000E+00  0.1111111E-01
    1      -11.777333   1.000000
    2      -11.523589   1.000000
    3      -11.328522   1.000000
    4      -11.167567   1.000000
    5       -5.155407   1.000000
    6       -4.661252   1.000000
    7       -3.909014   1.000000
    8       -3.708717   1.000000
    9       -3.341930   1.000000
   10       -2.975157   1.000000
   11       -2.220419   1.000000
   12       -2.147572   1.000000
   13       -1.023459   1.000000
   14       -0.817556   1.000000
   15       -0.281751   1.000000
   16       -0.145770   1.000000
   17       -0.016839   1.000000
   18        0.147276   1.000000
   19        3.083805   0.000000
   20        3.472388   0.000000
   21        3.791981   0.000000
   22        4.094923   0.000000
   23        4.656581   0.000000
   24        5.123498   0.000000
   25        5.233182   0.000000
   26        5.772330   0.000000
   27        6.823431   0.000000
   28        7.670413   0.000000
   29        8.560095   0.000000
   30        8.871766   0.000000
   31        9.005193   0.000000
   32        9.427761   0.000000
   33        9.962228   0.000000
   34       10.602179   0.000000
   35       10.747693   0.000000
   36       11.378880   0.000000
   37       11.804217   0.000000
   38       12.177056   0.000000
   39       12.450154   0.000000
   40       12.869748   0.000000
   41       13.470399   0.000000
   42       13.638781   0.000000
   43       13.905208   0.000000
   44       14.652333   0.000000
   45       15.311131   0.000000
   46       15.680498   0.000000
   47       15.851795   0.000000
   48       16.875268   0.000000
 
  0.3965517E+00  0.0000000E+00  0.0000000E+00  0.1111111E-01
    1      -11.857335   1.000000
    2      -11.590836   1.000000
    3      -11.358986   1.000000
    4      -11.194751   1.000000
    5       -5.067782   1.000000
    6       -4.594756   1.000000
    7       -3.840366   1.000000
    8       -3.639432   1.000000
    9       -3.327310   1.000000
   10       -2.952440   1.000000
   11       -2.180512   1.000000
   12       -2.109554   1.000000
   13       -1.005931   1.000000
   14       -0.780968   1.000000
   15       -0.322296   1.000000
   16       -0.194704   1.000000
   17       -0.065143   1.000000
   18        0.100909   1.000000
   19        3.080509   0.000000
   20        3.419343   0.000000
   21        3.755633   0.000000
   22        4.016708   0.000000
   23        4.604934   0.000000
   24        5.099972   0.000000
   25        5.185459   0.000000
   26        5.742268   0.000000
   27        7.025712   0.000000
   28        7.862177   0.000000
   29        8.538553   0.000000
   30        8.852966   0.000000
   31        8.977703   0.000000
   32        9.383981   0.000000
   33        9.874784   0.000000
   34       10.593692   0.000000
   35       10.842871   0.000000
   36       11.429718   0.000000
   37       11.851325   0.000000
   38       12.327733   0.000000
   39       12.479696   0.000000
   40       13.008055   0.000000
   41       13.624440   0.000000
   42       13.829810   0.000000
   43       13.947865   0.000000
   44       14.459848   0.000000
   45       15.370929   0.000000
   46       15.714748   0.000000
   47       15.729009   0.000000
   48       16.756935   0.000000
 
  0.3793103E+00  0.0000000E+00  0.0000000E+00  0.1111111E-01
    1      -11.946941   1.000000
    2      -11.666651   1.000000
    3      -11.393641   1.000000
    4      -11.225661   1.000000
    5       -4.970464   1.000000
    6       -4.521014   1.000000
    7       -3.764610   1.000000
    8       -3.564970   1.000000
    9       -3.308584   1.000000
   10       -2.931002   1.000000
   11       -2.133740   1.000000
   12       -2.065001   1.000000
   13       -0.982671   1.000000
   14       -0.738538   1.000000
   15       -0.370520   1.000000
   16       -0.252014   1.000000
   17       -0.103271   1.000000
   18        0.059546   1.000000
   19        3.080349   0.000000
   20        3.363391   0.000000
   21        3.719969   0.000000
   22        3.941053   0.000000
   23        4.542691   0.000000
   24        5.071358   0.000000
   25        5.125993   0.000000
   26        5.705818   0.000000
   27        7.235402   0.000000
   28        8.052352   0.000000
   29        8.486175   0.000000
   30        8.814798   0.000000
   31        9.015627   0.000000
   32        9.368613   0.000000
   33        9.785239   0.000000
   34       10.579229   0.000000
   35       10.944254   0.000000
   36       11.453125   0.000000
   37       11.928928   0.000000
   38       12.495957   0.000000
   39       12.533842   0.000000
   40       13.162038   0.000000
   41       13.676556   0.000000
   42       13.977631   0.000000
   43       14.077721   0.000000
   44       14.280379   0.000000
   45       15.388306   0.000000
   46       15.571271   0.000000
   47       15.815717   0.000000
   48       16.572750   0.000000
 
  0.3620690E+00  0.0000000E+00  0.0000000E+00  0.1111111E-01
    1      -12.044318   1.000000
    2      -11.749560   1.000000
    3      -11.431853   1.000000
    4      -11.259761   1.000000
    5       -4.866709   1.000000
    6       -4.442230   1.000000
    7       -3.686885   1.000000
    8       -3.492382   1.000000
    9       -3.277268   1.000000
   10       -2.912272   1.000000
   11       -2.080301   1.000000
   12       -2.014105   1.000000
   13       -0.953170   1.000000
   14       -0.690140   1.000000
   15       -0.426299   1.000000
   16       -0.317216   1.000000
   17       -0.126407   1.000000
   18        0.028760   1.000000
   19        3.084517   0.000000
   20        3.306534   0.000000
   21        3.687394   0.000000
   22        3.869313   0.000000
   23        4.470786   0.000000
   24        5.037032   0.000000
   25        5.055491   0.000000
   26        5.662633   0.000000
   27        7.443221   0.000000
   28        8.214556   0.000000
   29        8.403312   0.000000
   30        8.786232   0.000000
   31        9.108144   0.000000
   32        9.389506   0.000000
   33        9.706712   0.000000
   34       10.564378   0.000000
   35       11.020503   0.000000
   36       11.477837   0.000000
   37       12.005487   0.000000
   38       12.628163   0.000000
   39       12.677891   0.000000
   40       13.326408   0.000000
   41       13.664752   0.000000
   42       13.961002   0.000000
   43       14.034653   0.000000
   44       14.404936   0.000000
   45       15.400845   0.000000
   46       15.425755   0.000000
   47       15.936944   0.000000
   48       16.330670   0.000000
 
  0.3448276E+00  0.0000000E+00  0.0000000E+00  0.1111111E-01
    1      -12.147692   1.000000
    2      -11.838091   1.000000
    3      -11.472962   1.000000
    4      -11.296482   1.000000
    5       -4.760876   1.000000
    6       -4.360837   1.000000
    7       -3.617522   1.000000
    8       -3.426712   1.000000
    9       -3.220689   1.000000
   10       -2.896335   1.000000
   11       -2.020460   1.000000
   12       -1.957105   1.000000
   13       -0.917204   1.000000
   14       -0.635637   1.000000
   15       -0.489329   1.000000
   16       -0.389650   1.000000
   17       -0.131080   1.000000
   18        0.013421   1.000000
   19        3.093987   0.000000
   20        3.250737   0.000000
   21        3.659983   0.000000
   22        3.802226   0.000000
   23        4.390588   0.000000
   24        4.972848   0.000000
   25        4.998760   0.000000
   26        5.612380   0.000000
   27        7.637252   0.000000
   28        8.244961   0.000000
   29        8.377373   0.000000
   30        8.788809   0.000000
   31        9.248184   0.000000
   32        9.449290   0.000000
   33        9.646668   0.000000
   34       10.551553   0.000000
   35       11.043974   0.000000
   36       11.531653   0.000000
   37       12.068593   0.000000
   38       12.757816   0.000000
   39       12.868360   0.000000
   40       13.493695   0.000000
   41       13.586048   0.000000
   42       13.722675   0.000000
   43       14.073975   0.000000
   44       14.590947   0.000000
   45       15.252748   0.000000
   46       15.495071   0.000000
   47       15.996535   0.000000
   48       16.159492   0.000000
 
  0.3275862E+00  0.0000000E+00  0.0000000E+00  0.1111111E-01
    1      -12.255370   1.000000
    2      -11.930806   1.000000
    3      -11.516335   1.000000
    4      -11.335274   1.000000
    5       -4.659187   1.000000
    6       -4.279330   1.000000
    7       -3.571103   1.000000
    8       -3.356853   1.000000
    9       -3.137184   1.000000
   10       -2.880432   1.000000
   11       -1.954502   1.000000
   12       -1.894279   1.000000
   13       -0.874912   1.000000
   14       -0.575443   1.000000
   15       -0.558709   1.000000
   16       -0.468443   1.000000
   17       -0.115370   1.000000
   18        0.017058   1.000000
   19        3.109456   0.000000
   20        3.197956   0.000000
   21        3.639366   0.000000
   22        3.740198   0.000000
   23        4.303836   0.000000
   24        4.882614   0.000000
   25        4.953141   0.000000
   26        5.554761   0.000000
   27        7.795200   0.000000
   28        8.136521   0.000000
   29        8.415502   0.000000
   30        8.843323   0.000000
   31        9.425051   0.000000
   32        9.543873   0.000000
   33        9.611435   0.000000
   34       10.539888   0.000000
   35       11.015161   0.000000
   36       11.611553   0.000000
   37       12.119943   0.000000
   38       12.899910   0.000000
   39       13.061881   0.000000
   40       13.421015   0.000000
   41       13.505072   0.000000
   42       13.656355   0.000000
   43       14.110517   0.000000
   44       14.684987   0.000000
   45       15.093089   0.000000
   46       15.675758   0.000000
   47       15.772726   0.000000
   48       15.892001   0.000000
 
  0.3103448E+00  0.0000000E+00  0.0000000E+00  0.1111111E-01
    1      -12.365758   1.000000
    2      -12.026312   1.000000
    3      -11.561314   1.000000
    4      -11.375556   1.000000
    5       -4.570610   1.000000
    6       -4.200013   1.000000
    7       -3.548328   1.000000
    8       -3.270720   1.000000
    9       -3.041085   1.000000
   10       -2.855548   1.000000
   11       -1.882781   1.000000
   12       -1.825947   1.000000
   13       -0.826851   1.000000
   14       -0.635048   1.000000
   15       -0.552644   1.000000
   16       -0.508546   1.000000
   17       -0.078805   1.000000
   18        0.041501   1.000000
   19        3.131367   0.000000
   20        3.150295   0.000000
   21        3.626758   0.000000
   22        3.683545   0.000000
   23        4.212681   0.000000
   24        4.784901   0.000000
   25        4.901758   0.000000
   26        5.489608   0.000000
   27        7.853412   0.000000
   28        8.055537   0.000000
   29        8.430927   0.000000
   30        8.939612   0.000000
   31        9.581879   0.000000
   32        9.616567   0.000000
   33        9.695468   0.000000
   34       10.525259   0.000000
   35       10.955581   0.000000
   36       11.689278   0.000000
   37       12.160891   0.000000
   38       13.002257   0.000000
   39       13.215820   0.000000
   40       13.253228   0.000000
   41       13.348796   0.000000
   42       13.798150   0.000000
   43       14.120704   0.000000
   44       14.723845   0.000000
   45       14.935073   0.000000
   46       15.468304   0.000000
   47       15.671403   0.000000
   48       15.775861   0.000000
 
  0.2931034E+00  0.0000000E+00  0.0000000E+00  0.1111111E-01
    1      -12.477375   1.000000
    2      -12.123290   1.000000
    3      -11.607266   1.000000
    4      -11.416772   1.000000
    5       -4.506587   1.000000
    6       -4.125474   1.000000
    7       -3.531151   1.000000
    8       -3.173748   1.000000
    9       -2.954622   1.000000
   10       -2.800666   1.000000
   11       -1.805727   1.000000
   12       -1.752489   1.000000
   13       -0.774016   1.000000
   14       -0.715889   1.000000
   15       -0.640890   1.000000
   16       -0.437680   1.000000
   17       -0.022186   1.000000
   18        0.086748   1.000000
   19        3.109845   0.000000
   20        3.159973   0.000000
   21        3.622722   0.000000
   22        3.632766   0.000000
   23        4.119622   0.000000
   24        4.682045   0.000000
   25        4.844321   0.000000
   26        5.416840   0.000000
   27        7.764618   0.000000
   28        8.031441   0.000000
   29        8.473525   0.000000
   30        9.049897   0.000000
   31        9.590201   0.000000
   32        9.785993   0.000000
   33        9.886189   0.000000
   34       10.501468   0.000000
   35       10.881863   0.000000
   36       11.734376   0.000000
   37       12.188597   0.000000
   38       12.895159   0.000000
   39       13.170581   0.000000
   40       13.262471   0.000000
   41       13.427626   0.000000
   42       13.902503   0.000000
   43       14.092627   0.000000
   44       14.747070   0.000000
   45       14.788156   0.000000
   46       15.206002   0.000000
   47       15.490831   0.000000
   48       15.599183   0.000000
 
  0.2758621E+00  0.0000000E+00  0.0000000E+00  0.1111111E-01
    1      -12.588864   1.000000
    2      -12.220504   1.000000
    3      -11.653597   1.000000
    4      -11.458381   1.000000
    5       -4.477189   1.000000
    6       -4.061097   1.000000
    7       -3.500369   1.000000
    8       -3.076116   1.000000
    9       -2.886644   1.000000
   10       -2.701085   1.000000
   11       -1.723842   1.000000
   12       -1.674322   1.000000
   13       -0.800807   1.000000
   14       -0.732462   1.000000
   15       -0.717251   1.000000
   16       -0.363724   1.000000
   17        0.052327   1.000000
   18        0.151225   1.000000
   19        3.079011   0.000000
   20        3.195024   0.000000
   21        3.587706   0.000000
   22        3.628043   0.000000
   23        4.027435   0.000000
   24        4.576408   0.000000
   25        4.780850   0.000000
   26        5.336565   0.000000
   27        7.629160   0.000000
   28        7.975413   0.000000
   29        8.547610   0.000000
   30        9.155264   0.000000
   31        9.618132   0.000000
   32        9.948415   0.000000
   33       10.096430   0.000000
   34       10.464722   0.000000
   35       10.801552   0.000000
   36       11.725156   0.000000
   37       12.195106   0.000000
   38       12.734481   0.000000
   39       13.095875   0.000000
   40       13.306642   0.000000
   41       13.573102   0.000000
   42       13.948827   0.000000
   43       14.043399   0.000000
   44       14.627541   0.000000
   45       14.710608   0.000000
   46       15.078188   0.000000
   47       15.261908   0.000000
   48       15.421845   0.000000
 
  0.2586207E+00  0.0000000E+00  0.0000000E+00  0.1111111E-01
    1      -12.699002   1.000000
    2      -12.316838   1.000000
    3      -11.699737   1.000000
    4      -11.499872   1.000000
    5       -4.485206   1.000000
    6       -4.016893   1.000000
    7       -3.442455   1.000000
    8       -2.985243   1.000000
    9       -2.811959   1.000000
   10       -2.574484   1.000000
   11       -1.637731   1.000000
   12       -1.591945   1.000000
   13       -0.888448   1.000000
   14       -0.825026   1.000000
   15       -0.659295   1.000000
   16       -0.288778   1.000000
   17        0.140952   1.000000
   18        0.232619   1.000000
   19        3.060053   0.000000
   20        3.236246   0.000000
   21        3.549459   0.000000
   22        3.641901   0.000000
   23        3.939195   0.000000
   24        4.470483   0.000000
   25        4.711522   0.000000
   26        5.249060   0.000000
   27        7.487138   0.000000
   28        7.887387   0.000000
   29        8.616522   0.000000
   30        9.241105   0.000000
   31        9.666254   0.000000
   32       10.099483   0.000000
   33       10.292633   0.000000
   34       10.426240   0.000000
   35       10.722984   0.000000
   36       11.667045   0.000000
   37       12.164306   0.000000
   38       12.638223   0.000000
   39       13.046189   0.000000
   40       13.314547   0.000000
   41       13.664987   0.000000
   42       13.926543   0.000000
   43       13.998619   0.000000
   44       14.476363   0.000000
   45       14.549108   0.000000
   46       15.088632   0.000000
   47       15.135546   0.000000
   48       15.276937   0.000000
 
  0.2413793E+00  0.0000000E+00  0.0000000E+00  0.1111111E-01
    1      -12.806680   1.000000
    2      -12.411268   1.000000
    3      -11.745174   1.000000
    4      -11.540775   1.000000
    5       -4.525218   1.000000
    6       -4.001836   1.000000
    7       -3.352431   1.000000
    8       -2.899096   1.000000
    9       -2.717197   1.000000
   10       -2.436191   1.000000
   11       -1.548133   1.000000
   12       -1.505914   1.000000
   13       -0.977571   1.000000
   14       -0.918182   1.000000
   15       -0.601011   1.000000
   16       -0.215082   1.000000
   17        0.237798   1.000000
   18        0.328966   1.000000
   19        3.055206   0.000000
   20        3.283085   0.000000
   21        3.518145   0.000000
   22        3.664062   0.000000
   23        3.858289   0.000000
   24        4.366854   0.000000
   25        4.636704   0.000000
   26        5.154846   0.000000
   27        7.346800   0.000000
   28        7.784504   0.000000
   29        8.652596   0.000000
   30        9.293381   0.000000
   31        9.721528   0.000000
   32       10.191332   0.000000
   33       10.368341   0.000000
   34       10.504544   0.000000
   35       10.686563   0.000000
   36       11.591419   0.000000
   37       12.094776   0.000000
   38       12.603463   0.000000
   39       13.010896   0.000000
   40       13.264713   0.000000
   41       13.665581   0.000000
   42       13.855951   0.000000
   43       13.961033   0.000000
   44       14.316643   0.000000
   45       14.411089   0.000000
   46       14.952228   0.000000
   47       15.176736   0.000000
   48       15.286748   0.000000
 
  0.2241379E+00  0.0000000E+00  0.0000000E+00  0.1111111E-01
    1      -12.910878   1.000000
    2      -12.502845   1.000000
    3      -11.789418   1.000000
    4      -11.580646   1.000000
    5       -4.588121   1.000000
    6       -4.016427   1.000000
    7       -3.234621   1.000000
    8       -2.808609   1.000000
    9       -2.608101   1.000000
   10       -2.292158   1.000000
   11       -1.455979   1.000000
   12       -1.416828   1.000000
   13       -1.066755   1.000000
   14       -1.010348   1.000000
   15       -0.544763   1.000000
   16       -0.145007   1.000000
   17        0.335575   1.000000
   18        0.438771   1.000000
   19        3.066449   0.000000
   20        3.334825   0.000000
   21        3.494041   0.000000
   22        3.693702   0.000000
   23        3.788445   0.000000
   24        4.268203   0.000000
   25        4.556983   0.000000
   26        5.054704   0.000000
   27        7.211110   0.000000
   28        7.675831   0.000000
   29        8.640494   0.000000
   30        9.296408   0.000000
   31        9.750284   0.000000
   32       10.191591   0.000000
   33       10.363793   0.000000
   34       10.663233   0.000000
   35       10.763169   0.000000
   36       11.525848   0.000000
   37       12.010990   0.000000
   38       12.577481   0.000000
   39       12.954242   0.000000
   40       13.192432   0.000000
   41       13.550480   0.000000
   42       13.765793   0.000000
   43       13.935348   0.000000
   44       14.165308   0.000000
   45       14.353919   0.000000
   46       14.799010   0.000000
   47       15.186461   0.000000
   48       15.397597   0.000000
 
  0.2068966E+00  0.0000000E+00  0.0000000E+00  0.1111111E-01
    1      -13.010701   1.000000
    2      -12.590740   1.000000
    3      -11.832038   1.000000
    4      -11.619084   1.000000
    5       -4.665258   1.000000
    6       -4.054354   1.000000
    7       -3.097556   1.000000
    8       -2.708875   1.000000
    9       -2.492182   1.000000
   10       -2.145106   1.000000
   11       -1.362760   1.000000
   12       -1.325423   1.000000
   13       -1.154302   1.000000
   14       -1.100235   1.000000
   15       -0.492870   1.000000
   16       -0.081135   1.000000
   17        0.428171   1.000000
   18        0.559156   1.000000
   19        3.095166   0.000000
   20        3.390570   0.000000
   21        3.477043   0.000000
   22        3.728638   0.000000
   23        3.734745   0.000000
   24        4.177202   0.000000
   25        4.473151   0.000000
   26        4.949657   0.000000
   27        7.081598   0.000000
   28        7.565967   0.000000
   29        8.572705   0.000000
   30        9.233736   0.000000
   31        9.715042   0.000000
   32       10.176183   0.000000
   33       10.386876   0.000000
   34       10.824531   0.000000
   35       10.903535   0.000000
   36       11.478987   0.000000
   37       11.928911   0.000000
   38       12.509048   0.000000
   39       12.860578   0.000000
   40       13.152374   0.000000
   41       13.366438   0.000000
   42       13.626259   0.000000
   43       13.949936   0.000000
   44       14.050089   0.000000
   45       14.349629   0.000000
   46       14.685580   0.000000
   47       15.237086   0.000000
   48       15.500818   0.000000
 
  0.1896552E+00  0.0000000E+00  0.0000000E+00  0.1111111E-01
    1      -13.105316   1.000000
    2      -12.674180   1.000000