============================================================
MKLROOT=/public/apps/intel/oneapi/mkl/2021.2.0
============================================================
Job ID: sub_vasp
Job name: sub_vasp
Number of nodes: 1
Number of processors: 24
Task is running on the following nodes:
h6
OMP_NUM_THREADS = 1
============================================================

 running on   24 total cores
 distrk:  each k-point on   24 cores,    1 groups
 distr:  one band on    6 cores,    4 groups
 using from now: INCAR     
 vasp.5.4.4.18Apr17-6-g9f103f2a35 (build Jun 26 2021 01:31:14) complex          
  
 POSCAR found type information on POSCAR  S  Mo W 
 POSCAR found :  3 types and       6 ions
 scaLAPACK will be used
 LDA part: xc-table for Pade appr. of Perdew
 WARNING: stress and forces are not correct
 POSCAR, INCAR and KPOINTS ok, starting setup
 FFT: planning ...
 WAVECAR not read
 charge-density read from file: VaspCalc                                
 WARNING: random wavefunctions but no delay for mixing, default for NELMDL
 entering main loop
       N       E                     dE             d eps       ncg     rms          rms(c)
DAV:   1     0.156069602718E+03    0.15607E+03   -0.11867E+04  8640   0.504E+02
DAV:   2    -0.317131117701E+02   -0.18778E+03   -0.17432E+03 10792   0.144E+02
DAV:   3    -0.444577645916E+02   -0.12745E+02   -0.12527E+02 10648   0.353E+01
DAV:   4    -0.446624190764E+02   -0.20465E+00   -0.20453E+00 10688   0.489E+00
DAV:   5    -0.446679852024E+02   -0.55661E-02   -0.55659E-02 11144   0.765E-01
RMM:   6    -0.446681989371E+02   -0.21373E-03   -0.21373E-03  8969   0.146E-01
RMM:   7    -0.446682219640E+02   -0.23027E-04   -0.22585E-04 13451   0.413E-02
RMM:   8    -0.446682220566E+02   -0.92670E-07   -0.78863E-07  8073   0.216E-03
   1 F= -.46360398E+02 E0= -.46360398E+02  d E =-.903683E-12
