 vasp.5.4.4.18Apr17-6-g9f103f2a35 (build Jun 26 2021 01:31:14) complex          
  
 executed on             LinuxIFC date 2021.07.11  12:47:52
 running on   24 total cores
 distrk:  each k-point on   24 cores,    1 groups
 distr:  one band on NCORES_PER_BAND=   6 cores,    4 groups


--------------------------------------------------------------------------------------------------------


 INCAR:
 POTCAR:    PAW_PBE S 17Jan2003                   
 POTCAR:   PAW_PBE Mo 08Apr2002                   
 POTCAR:   PAW_PBE W 08Apr2002                    
 POTCAR:    PAW_PBE S 17Jan2003                   
  local pseudopotential read in
  partial core-charges read in
  atomic valenz-charges read in
  non local Contribution for L=           0  read in
    real space projection operators read in
  non local Contribution for L=           0  read in
    real space projection operators read in
  non local Contribution for L=           1  read in
    real space projection operators read in
  non local Contribution for L=           1  read in
    real space projection operators read in
    PAW grid and wavefunctions read in
 
   number of l-projection  operators is LMAX  =           4
   number of lm-projection operators is LMMAX =           8
 
 POTCAR:   PAW_PBE Mo 08Apr2002                   
  local pseudopotential read in
  partial core-charges read in
  atomic valenz-charges read in
  non local Contribution for L=           2  read in
    real space projection operators read in
  non local Contribution for L=           2  read in
    real space projection operators read in
  non local Contribution for L=           0  read in
    real space projection operators read in
  non local Contribution for L=           0  read in
    real space projection operators read in
  non local Contribution for L=           1  read in
    real space projection operators read in
  non local Contribution for L=           1  read in
    real space projection operators read in
    PAW grid and wavefunctions read in
 
   number of l-projection  operators is LMAX  =           6
   number of lm-projection operators is LMMAX =          18
 
 POTCAR:   PAW_PBE W 08Apr2002                    
  local pseudopotential read in
  partial core-charges read in
  atomic valenz-charges read in
  non local Contribution for L=           2  read in
    real space projection operators read in
  non local Contribution for L=           2  read in
    real space projection operators read in
  non local Contribution for L=           0  read in
    real space projection operators read in
  non local Contribution for L=           0  read in
    real space projection operators read in
  non local Contribution for L=           1  read in
    real space projection operators read in
  non local Contribution for L=           1  read in
    real space projection operators read in
    PAW grid and wavefunctions read in
 
   number of l-projection  operators is LMAX  =           6
   number of lm-projection operators is LMMAX =          18
 
  PAW_PBE S 17Jan2003                   :
 energy of atom  1       EATOM= -276.8230
 kinetic energy error for atom=    0.0046 (will be added to EATOM!!)
 PAW_PBE Mo 08Apr2002                   :
 energy of atom  2       EATOM= -217.5180
 kinetic energy error for atom=    0.0025 (will be added to EATOM!!)
 PAW_PBE W 08Apr2002                    :
 energy of atom  3       EATOM= -204.6100
 kinetic energy error for atom=    0.0024 (will be added to EATOM!!)
 
 
 POSCAR: convert from MoS2WS2C7.car  14:23:52 03/
  positions in direct lattice
  velocities in cartesian coordinates
 exchange correlation table for  LEXCH =        8
   RHO(1)=    0.500       N(1)  =     2000
   RHO(2)=  100.500       N(2)  =     4000
 


--------------------------------------------------------------------------------------------------------


 ion  position               nearest neighbor table
   1  0.659  0.346  0.693-   6 2.41   6 2.41   6 2.42
   2  0.659  0.346  0.537-   6 2.41   6 2.41   6 2.41
   3  0.998  0.001  0.384-   5 2.41   5 2.41   5 2.41
   4  0.998  0.001  0.228-   5 2.41   5 2.41   5 2.41
   5  0.664  0.334  0.306-   3 2.41   3 2.41   3 2.41   4 2.41   4 2.41   4 2.41
   6  0.992  0.012  0.615-   2 2.41   2 2.41   2 2.41   1 2.41   1 2.41   1 2.42
 
  LATTYP: Found a hexagonal cell.
 ALAT       =     3.1864999999
 C/A-ratio  =     6.2764788956
  
  Lattice vectors:
  
 A1 = (   3.1865000000,   0.0000000000,   0.0000000000)
 A2 = (  -1.5932500000,   2.7595899490,   0.0000000000)
 A3 = (   0.0000000000,   0.0000000000,  20.0000000000)


Analysis of symmetry for initial positions (statically):
=====================================================================
 Subroutine PRICEL returns:
 Original cell was already a primitive cell.
 

 Routine SETGRP: Setting up the symmetry group for a 
 hexagonal supercell.


 Subroutine GETGRP returns: Found  1 space group operations
 (whereof  1 operations were pure point group operations)
 out of a pool of 24 trial point group operations.


The static configuration has the point symmetry C_1 .


Analysis of symmetry for dynamics (positions and initial velocities):
=====================================================================
 Subroutine PRICEL returns:
 Original cell was already a primitive cell.
 

 Routine SETGRP: Setting up the symmetry group for a 
 hexagonal supercell.


 Subroutine GETGRP returns: Found  1 space group operations
 (whereof  1 operations were pure point group operations)
 out of a pool of 24 trial point group operations.


The dynamic configuration has the point symmetry C_1 .


Analysis of constrained symmetry for selective dynamics:
=====================================================================
 Subroutine PRICEL returns:
 Original cell was already a primitive cell.
 

 Routine SETGRP: Setting up the symmetry group for a 
 hexagonal supercell.


 Subroutine GETGRP returns: Found  1 space group operations
 (whereof  1 operations were pure point group operations)
 out of a pool of 24 trial point group operations.


The constrained configuration has the point symmetry C_1 .


 Subroutine INISYM returns: Found  1 space group operations
 (whereof  1 operations are pure point group operations),
 and found     1 'primitive' translations

 
 
 KPOINTS: HEX (hexagonal) M-G-K-M                 
  interpolating k-points between supplied coordinates
  k-points in reciprocal lattice
Space group operators:
 irot       det(A)        alpha          n_x          n_y          n_z        tau_x        tau_y        tau_z
    1     1.000000     0.000001     1.000000     0.000000     0.000000     0.000000     0.000000     0.000000


--------------------------------------------------------------------------------------------------------




 Dimension of arrays:
   k-points           NKPTS =     90   k-points in BZ     NKDIM =     90   number of bands    NBANDS=     48
   number of dos      NEDOS =    301   number of ions     NIONS =      6
   non local maximal  LDIM  =      6   non local SUM 2l+1 LMDIM =     18
   total plane-waves  NPLWV =  25088
   max r-space proj   IRMAX =      1   max aug-charges    IRDMAX=   2499
   dimension x,y,z NGX =    16 NGY =   16 NGZ =   98
   dimension x,y,z NGXF=    20 NGYF=   20 NGZF=  126
   support grid    NGXF=    20 NGYF=   20 NGZF=  126
   ions per type =               4   1   1
   NGX,Y,Z   is equivalent  to a cutoff of   8.35,  8.35,  8.15 a.u.
   NGXF,Y,Z  is equivalent  to a cutoff of  10.43, 10.43, 10.47 a.u.

 SYSTEM =  VaspCalc                                
 POSCAR =  convert from MoS2WS2C7.car  14:23:52 03/

 Startparameter for this run:
   NWRITE =      1    write-flag & timer
   PREC   = med       normal or accurate (medium, high low for compatibility)
   ISTART =      0    job   : 0-new  1-cont  2-samecut
   ICHARG =     11    charge: 1-file 2-atom 10-const
   ISPIN  =      1    spin polarized calculation?
   LNONCOLLINEAR =      F non collinear calculations
   LSORBIT =      F    spin-orbit coupling
   INIWAV =      1    electr: 0-lowe 1-rand  2-diag
   LASPH  =      F    aspherical Exc in radial PAW
   METAGGA=      F    non-selfconsistent MetaGGA calc.

 Electronic Relaxation 1
   ENCUT  =  400.0 eV  29.40 Ry    5.42 a.u.   5.20  5.20 32.61*2*pi/ulx,y,z
   ENINI  =  400.0     initial cutoff
   ENAUG  =  373.4 eV  augmentation charge cutoff
   NELM   =    400;   NELMIN=  4; NELMDL=  0     # of ELM steps 
   EDIFF  = 0.1E-05   stopping-criterion for ELM
   LREAL  =      F    real-space projection
   NLSPLINE    = F    spline interpolate recip. space projectors
   LCOMPAT=      F    compatible to vasp.4.4
   GGA_COMPAT  = T    GGA compatible to vasp.4.4-vasp.4.6
   LMAXPAW     = -100 max onsite density
   LMAXMIX     =    2 max onsite mixed and CHGCAR
   VOSKOWN=      0    Vosko Wilk Nusair interpolation
   ROPT   =    0.00000   0.00000   0.00000
 Ionic relaxation
   EDIFFG = 0.1E-04   stopping-criterion for IOM
   NSW    =      0    number of steps for IOM
   NBLOCK =      1;   KBLOCK =      1    inner block; outer block 
   IBRION =     -1    ionic relax: 0-MD 1-quasi-New 2-CG
   NFREE  =      0    steps in history (QN), initial steepest desc. (CG)
   ISIF   =      2    stress and relaxation
   IWAVPR =     10    prediction:  0-non 1-charg 2-wave 3-comb
   ISYM   =      2    0-nonsym 1-usesym 2-fastsym
   LCORR  =      T    Harris-Foulkes like correction to forces

   POTIM  = 0.5000    time-step for ionic-motion
   TEIN   =    0.0    initial temperature
   TEBEG  =    0.0;   TEEND  =   0.0 temperature during run
   SMASS  =  -3.00    Nose mass-parameter (am)
   estimated Nose-frequenzy (Omega)   =  0.10E-29 period in steps =****** mass=  -0.232E-27a.u.
   SCALEE = 1.0000    scale energy and forces
   NPACO  =    256;   APACO  = 16.0  distance and # of slots for P.C.
   PSTRESS=    0.0 pullay stress

  Mass of Ions in am
   POMASS =  32.07 95.94183.85
  Ionic Valenz
   ZVAL   =   6.00  6.00  6.00
  Atomic Wigner-Seitz radii
   RWIGS  =  -1.00 -1.00 -1.00
  virtual crystal weights 
   VCA    =   1.00  1.00  1.00
   NELECT =      36.0000    total number of electrons
   NUPDOWN=      -1.0000    fix difference up-down

 DOS related values:
   EMIN   =  10.00;   EMAX   =-10.00  energy-range for DOS
   EFERMI =   0.00
   ISMEAR =     0;   SIGMA  =   0.10  broadening in eV -4-tet -1-fermi 0-gaus

 Electronic relaxation 2 (details)
   IALGO  =     68    algorithm
   LDIAG  =      T    sub-space diagonalisation (order eigenvalues)
   LSUBROT=      F    optimize rotation matrix (better conditioning)
   TURBO    =      0    0=normal 1=particle mesh
   IRESTART =      0    0=no restart 2=restart with 2 vectors
   NREBOOT  =      0    no. of reboots
   NMIN     =      0    reboot dimension
   EREF     =   0.00    reference energy to select bands
   IMIX   =      4    mixing-type and parameters
     AMIX     =   0.40;   BMIX     =  1.00
     AMIX_MAG =   1.60;   BMIX_MAG =  1.00
     AMIN     =   0.10
     WC   =   100.;   INIMIX=   1;  MIXPRE=   1;  MAXMIX= -45

 Intra band minimization:
   WEIMIN = 0.0000     energy-eigenvalue tresh-hold
   EBREAK =  0.52E-08  absolut break condition
   DEPER  =   0.30     relativ break condition  

   TIME   =   0.40     timestep for ELM

  volume/ion in A,a.u.               =      29.31       197.80
  Fermi-wavevector in a.u.,A,eV,Ry     =   0.964820  1.823245 12.665352  0.930877
  Thomas-Fermi vector in A             =   2.094484
 
 Write flags
   LWAVE        =      F    write WAVECAR
   LDOWNSAMPLE  =      F    k-point downsampling of WAVECAR
   LCHARG       =      T    write CHGCAR
   LVTOT        =      F    write LOCPOT, total local potential
   LVHAR        =      F    write LOCPOT, Hartree potential only
   LELF         =      F    write electronic localiz. function (ELF)
   LORBIT       =     11    0 simple, 1 ext, 2 COOP (PROOUT), +10 PAW based schemes


 Dipole corrections
   LMONO  =      F    monopole corrections only (constant potential shift)
   LDIPOL =      F    correct potential (dipole corrections)
   IDIPOL =      0    1-x, 2-y, 3-z, 4-all directions 
   EPSILON=  1.0000000 bulk dielectric constant

 Exchange correlation treatment:
   GGA     =    --    GGA type
   LEXCH   =     8    internal setting for exchange type
   VOSKOWN=      0    Vosko Wilk Nusair interpolation
   LHFCALC =     F    Hartree Fock is set to
   LHFONE  =     F    Hartree Fock one center treatment
   AEXX    =    0.0000 exact exchange contribution

 Linear response parameters
   LEPSILON=     F    determine dielectric tensor
   LRPA    =     F    only Hartree local field effects (RPA)
   LNABLA  =     F    use nabla operator in PAW spheres
   LVEL    =     F    velocity operator in full k-point grid
   LINTERFAST=   F  fast interpolation
   KINTER  =     0    interpolate to denser k-point grid
   CSHIFT  =0.1000    complex shift for real part using Kramers Kronig
   OMEGAMAX=  -1.0    maximum frequency
   DEG_THRESHOLD= 0.2000000E-02 threshold for treating states as degnerate
   RTIME   =   -0.100 relaxation time in fs
  (WPLASMAI=    0.000 imaginary part of plasma frequency in eV, 0.658/RTIME)
   DFIELD  = 0.0000000 0.0000000 0.0000000 field for delta impulse in time
 
 Orbital magnetization related:
   ORBITALMAG=     F  switch on orbital magnetization
   LCHIMAG   =     F  perturbation theory with respect to B field
   DQ        =  0.001000  dq finite difference perturbation B field
   LLRAUG    =     F  two centre corrections for induced B field



--------------------------------------------------------------------------------------------------------


 Static calculation
 charge density and potential remain constant during run
 non-spin polarized calculation
 RMM-DIIS sequential band-by-band and
  variant of blocked Davidson during initial phase
 perform sub-space diagonalisation
    before iterative eigenvector-optimisation
 no mixing
 using additional bands           30
 reciprocal scheme for non local part
 use partial core corrections
 calculate Harris-corrections to forces 
   (improved forces if not selfconsistent)
 use gradient corrections 
 WARNING: stress and forces are not correct
  (second derivative of E(xc) not defined)
 use of overlap-Matrix (Vanderbilt PP)
 Gauss-broadening in eV      SIGMA  =   0.10


--------------------------------------------------------------------------------------------------------


  energy-cutoff  :      400.00
  volume of cell :      175.87
      direct lattice vectors                 reciprocal lattice vectors
     3.186500000  0.000000000  0.000000000     0.313823945  0.181186339  0.000000000
    -1.593250000  2.759589949  0.000000000     0.000000000  0.362372678  0.000000000
     0.000000000  0.000000000 20.000000000     0.000000000  0.000000000  0.050000000

  length of vectors
     3.186500000  3.186500000 20.000000000     0.362372678  0.362372678  0.050000000


 
 k-points in units of 2pi/SCALE and weight: HEX (hexagonal) M-G-K-M                 
   0.15691197  0.09059317  0.00000000       0.011
   0.15150121  0.08746927  0.00000000       0.011
   0.14609046  0.08434536  0.00000000       0.011
   0.14067970  0.08122146  0.00000000       0.011
   0.13526894  0.07809756  0.00000000       0.011
   0.12985818  0.07497366  0.00000000       0.011
   0.12444743  0.07184976  0.00000000       0.011
   0.11903667  0.06872585  0.00000000       0.011
   0.11362591  0.06560195  0.00000000       0.011
   0.10821515  0.06247805  0.00000000       0.011
   0.10280440  0.05935415  0.00000000       0.011
   0.09739364  0.05623024  0.00000000       0.011
   0.09198288  0.05310634  0.00000000       0.011
   0.08657212  0.04998244  0.00000000       0.011
   0.08116137  0.04685854  0.00000000       0.011
   0.07575061  0.04373463  0.00000000       0.011
   0.07033985  0.04061073  0.00000000       0.011
   0.06492909  0.03748683  0.00000000       0.011
   0.05951833  0.03436293  0.00000000       0.011
   0.05410758  0.03123902  0.00000000       0.011
   0.04869682  0.02811512  0.00000000       0.011
   0.04328606  0.02499122  0.00000000       0.011
   0.03787530  0.02186732  0.00000000       0.011
   0.03246455  0.01874341  0.00000000       0.011
   0.02705379  0.01561951  0.00000000       0.011
   0.02164303  0.01249561  0.00000000       0.011
   0.01623227  0.00937171  0.00000000       0.011
   0.01082152  0.00624780  0.00000000       0.011
   0.00541076  0.00312390  0.00000000       0.011
   0.00000000  0.00000000  0.00000000       0.011
   0.00000000  0.00000000  0.00000000       0.011
   0.00360681  0.00624718  0.00000000       0.011
   0.00721362  0.01249436  0.00000000       0.011
   0.01082043  0.01874154  0.00000000       0.011
   0.01442724  0.02498872  0.00000000       0.011
   0.01803406  0.03123590  0.00000000       0.011
   0.02164087  0.03748308  0.00000000       0.011
   0.02524768  0.04373026  0.00000000       0.011
   0.02885449  0.04997744  0.00000000       0.011
   0.03246130  0.05622462  0.00000000       0.011
   0.03606811  0.06247180  0.00000000       0.011
   0.03967492  0.06871898  0.00000000       0.011
   0.04328173  0.07496616  0.00000000       0.011
   0.04688854  0.08121334  0.00000000       0.011
   0.05049535  0.08746052  0.00000000       0.011
   0.05410217  0.09370770  0.00000000       0.011
   0.05770898  0.09995488  0.00000000       0.011
   0.06131579  0.10620206  0.00000000       0.011
   0.06492260  0.11244924  0.00000000       0.011
   0.06852941  0.11869642  0.00000000       0.011
   0.07213622  0.12494360  0.00000000       0.011
   0.07574303  0.13119078  0.00000000       0.011
   0.07934984  0.13743796  0.00000000       0.011
   0.08295665  0.14368514  0.00000000       0.011
   0.08656347  0.14993232  0.00000000       0.011
   0.09017028  0.15617950  0.00000000       0.011
   0.09377709  0.16242668  0.00000000       0.011
   0.09738390  0.16867386  0.00000000       0.011
   0.10099071  0.17492104  0.00000000       0.011
   0.10459752  0.18116822  0.00000000       0.011
   0.10459752  0.18116822  0.00000000       0.011
   0.10640147  0.17804494  0.00000000       0.011
   0.10820541  0.17492167  0.00000000       0.011
   0.11000936  0.17179839  0.00000000       0.011
   0.11181331  0.16867511  0.00000000       0.011
   0.11361725  0.16555183  0.00000000       0.011
   0.11542120  0.16242855  0.00000000       0.011
   0.11722515  0.15930528  0.00000000       0.011
   0.11902909  0.15618200  0.00000000       0.011
   0.12083304  0.15305872  0.00000000       0.011
   0.12263699  0.14993544  0.00000000       0.011
   0.12444093  0.14681217  0.00000000       0.011
   0.12624488  0.14368889  0.00000000       0.011
   0.12804883  0.14056561  0.00000000       0.011
   0.12985277  0.13744233  0.00000000       0.011
   0.13165672  0.13431906  0.00000000       0.011
   0.13346067  0.13119578  0.00000000       0.011
   0.13526461  0.12807250  0.00000000       0.011
   0.13706856  0.12494922  0.00000000       0.011
   0.13887251  0.12182595  0.00000000       0.011
   0.14067645  0.11870267  0.00000000       0.011
   0.14248040  0.11557939  0.00000000       0.011
   0.14428435  0.11245611  0.00000000       0.011
   0.14608829  0.10933284  0.00000000       0.011
   0.14789224  0.10620956  0.00000000       0.011
   0.14969619  0.10308628  0.00000000       0.011
   0.15150013  0.09996300  0.00000000       0.011
   0.15330408  0.09683972  0.00000000       0.011
   0.15510803  0.09371645  0.00000000       0.011
   0.15691197  0.09059317  0.00000000       0.011
 
 k-points in reciprocal lattice and weights: HEX (hexagonal) M-G-K-M                 
   0.50000000  0.00000000  0.00000000       0.011
   0.48275862  0.00000000  0.00000000       0.011
   0.46551724  0.00000000  0.00000000       0.011
   0.44827586  0.00000000  0.00000000       0.011
   0.43103448  0.00000000  0.00000000       0.011
   0.41379310  0.00000000  0.00000000       0.011
   0.39655172  0.00000000  0.00000000       0.011
   0.37931034  0.00000000  0.00000000       0.011
   0.36206897  0.00000000  0.00000000       0.011
   0.34482759  0.00000000  0.00000000       0.011
   0.32758621  0.00000000  0.00000000       0.011
   0.31034483  0.00000000  0.00000000       0.011
   0.29310345  0.00000000  0.00000000       0.011
   0.27586207  0.00000000  0.00000000       0.011
   0.25862069  0.00000000  0.00000000       0.011
   0.24137931  0.00000000  0.00000000       0.011
   0.22413793  0.00000000  0.00000000       0.011
   0.20689655  0.00000000  0.00000000       0.011
   0.18965517  0.00000000  0.00000000       0.011
   0.17241379  0.00000000  0.00000000       0.011
   0.15517241  0.00000000  0.00000000       0.011
   0.13793103  0.00000000  0.00000000       0.011
   0.12068966  0.00000000  0.00000000       0.011
   0.10344828  0.00000000  0.00000000       0.011
   0.08620690  0.00000000  0.00000000       0.011
   0.06896552  0.00000000  0.00000000       0.011
   0.05172414  0.00000000  0.00000000       0.011
   0.03448276  0.00000000  0.00000000       0.011
   0.01724138  0.00000000  0.00000000       0.011
   0.00000000  0.00000000  0.00000000       0.011
   0.00000000  0.00000000  0.00000000       0.011
   0.01149310  0.01149310  0.00000000       0.011
   0.02298621  0.02298621  0.00000000       0.011
   0.03447931  0.03447931  0.00000000       0.011
   0.04597241  0.04597241  0.00000000       0.011
   0.05746552  0.05746552  0.00000000       0.011
   0.06895862  0.06895862  0.00000000       0.011
   0.08045172  0.08045172  0.00000000       0.011
   0.09194483  0.09194483  0.00000000       0.011
   0.10343793  0.10343793  0.00000000       0.011
   0.11493103  0.11493103  0.00000000       0.011
   0.12642414  0.12642414  0.00000000       0.011
   0.13791724  0.13791724  0.00000000       0.011
   0.14941034  0.14941034  0.00000000       0.011
   0.16090345  0.16090345  0.00000000       0.011
   0.17239655  0.17239655  0.00000000       0.011
   0.18388966  0.18388966  0.00000000       0.011
   0.19538276  0.19538276  0.00000000       0.011
   0.20687586  0.20687586  0.00000000       0.011
   0.21836897  0.21836897  0.00000000       0.011
   0.22986207  0.22986207  0.00000000       0.011
   0.24135517  0.24135517  0.00000000       0.011
   0.25284828  0.25284828  0.00000000       0.011
   0.26434138  0.26434138  0.00000000       0.011
   0.27583448  0.27583448  0.00000000       0.011
   0.28732759  0.28732759  0.00000000       0.011
   0.29882069  0.29882069  0.00000000       0.011
   0.31031379  0.31031379  0.00000000       0.011
   0.32180690  0.32180690  0.00000000       0.011
   0.33330000  0.33330000  0.00000000       0.011
   0.33330000  0.33330000  0.00000000       0.011
   0.33904828  0.32180690  0.00000000       0.011
   0.34479655  0.31031379  0.00000000       0.011
   0.35054483  0.29882069  0.00000000       0.011
   0.35629310  0.28732759  0.00000000       0.011
   0.36204138  0.27583448  0.00000000       0.011
   0.36778966  0.26434138  0.00000000       0.011
   0.37353793  0.25284828  0.00000000       0.011
   0.37928621  0.24135517  0.00000000       0.011
   0.38503448  0.22986207  0.00000000       0.011
   0.39078276  0.21836897  0.00000000       0.011
   0.39653103  0.20687586  0.00000000       0.011
   0.40227931  0.19538276  0.00000000       0.011
   0.40802759  0.18388966  0.00000000       0.011
   0.41377586  0.17239655  0.00000000       0.011
   0.41952414  0.16090345  0.00000000       0.011
   0.42527241  0.14941034  0.00000000       0.011
   0.43102069  0.13791724  0.00000000       0.011
   0.43676897  0.12642414  0.00000000       0.011
   0.44251724  0.11493103  0.00000000       0.011
   0.44826552  0.10343793  0.00000000       0.011
   0.45401379  0.09194483  0.00000000       0.011
   0.45976207  0.08045172  0.00000000       0.011
   0.46551034  0.06895862  0.00000000       0.011
   0.47125862  0.05746552  0.00000000       0.011
   0.47700690  0.04597241  0.00000000       0.011
   0.48275517  0.03447931  0.00000000       0.011
   0.48850345  0.02298621  0.00000000       0.011
   0.49425172  0.01149310  0.00000000       0.011
   0.50000000  0.00000000  0.00000000       0.011
 
 position of ions in fractional coordinates (direct lattice) 
   0.65902527  0.34587942  0.69283634
   0.65905005  0.34586411  0.53651181
   0.99788073  0.00109173  0.38437599
   0.99783320  0.00099507  0.22844737
   0.66436778  0.33429416  0.30644433
   0.99243815  0.01248506  0.61460282
 
 position of ions in cartesian coordinates  (Angst):
   1.54891164  0.95448537 13.85672672
   1.54901497  0.95444313 10.73023619
   3.17800754  0.00301272  7.68751984
   3.17801010  0.00274598  4.56894746
   1.58439376  0.92251479  6.12888666
   3.14251235  0.03445365 12.29205645
 


--------------------------------------------------------------------------------------------------------


 k-point  1 :   0.5000 0.0000 0.0000  plane waves:    3224
 k-point  2 :   0.4828 0.0000 0.0000  plane waves:    3219
 k-point  3 :   0.4655 0.0000 0.0000  plane waves:    3213
 k-point  4 :   0.4483 0.0000 0.0000  plane waves:    3205
 k-point  5 :   0.4310 0.0000 0.0000  plane waves:    3219
 k-point  6 :   0.4138 0.0000 0.0000  plane waves:    3217
 k-point  7 :   0.3966 0.0000 0.0000  plane waves:    3207
 k-point  8 :   0.3793 0.0000 0.0000  plane waves:    3209
 k-point  9 :   0.3621 0.0000 0.0000  plane waves:    3211
 k-point 10 :   0.3448 0.0000 0.0000  plane waves:    3203
 k-point 11 :   0.3276 0.0000 0.0000  plane waves:    3209
 k-point 12 :   0.3103 0.0000 0.0000  plane waves:    3213
 k-point 13 :   0.2931 0.0000 0.0000  plane waves:    3207
 k-point 14 :   0.2759 0.0000 0.0000  plane waves:    3195
 k-point 15 :   0.2586 0.0000 0.0000  plane waves:    3189
 k-point 16 :   0.2414 0.0000 0.0000  plane waves:    3195
 k-point 17 :   0.2241 0.0000 0.0000  plane waves:    3187
 k-point 18 :   0.2069 0.0000 0.0000  plane waves:    3183
 k-point 19 :   0.1897 0.0000 0.0000  plane waves:    3173
 k-point 20 :   0.1724 0.0000 0.0000  plane waves:    3177
 k-point 21 :   0.1552 0.0000 0.0000  plane waves:    3159
 k-point 22 :   0.1379 0.0000 0.0000  plane waves:    3165
 k-point 23 :   0.1207 0.0000 0.0000  plane waves:    3163
 k-point 24 :   0.1034 0.0000 0.0000  plane waves:    3173
 k-point 25 :   0.0862 0.0000 0.0000  plane waves:    3173
 k-point 26 :   0.0690 0.0000 0.0000  plane waves:    3173
 k-point 27 :   0.0517 0.0000 0.0000  plane waves:    3177
 k-point 28 :   0.0345 0.0000 0.0000  plane waves:    3183
 k-point 29 :   0.0172 0.0000 0.0000  plane waves:    3183
 k-point 30 :   0.0000 0.0000 0.0000  plane waves:    3185
 k-point 31 :   0.0000 0.0000 0.0000  plane waves:    3185
 k-point 32 :   0.0115 0.0115 0.0000  plane waves:    3177
 k-point 33 :   0.0230 0.0230 0.0000  plane waves:    3177
 k-point 34 :   0.0345 0.0345 0.0000  plane waves:    3181
 k-point 35 :   0.0460 0.0460 0.0000  plane waves:    3161
 k-point 36 :   0.0575 0.0575 0.0000  plane waves:    3169
 k-point 37 :   0.0690 0.0690 0.0000  plane waves:    3167
 k-point 38 :   0.0805 0.0805 0.0000  plane waves:    3187
 k-point 39 :   0.0919 0.0919 0.0000  plane waves:    3179
 k-point 40 :   0.1034 0.1034 0.0000  plane waves:    3183
 k-point 41 :   0.1149 0.1149 0.0000  plane waves:    3189
 k-point 42 :   0.1264 0.1264 0.0000  plane waves:    3177
 k-point 43 :   0.1379 0.1379 0.0000  plane waves:    3183
 k-point 44 :   0.1494 0.1494 0.0000  plane waves:    3179
 k-point 45 :   0.1609 0.1609 0.0000  plane waves:    3185
 k-point 46 :   0.1724 0.1724 0.0000  plane waves:    3195
 k-point 47 :   0.1839 0.1839 0.0000  plane waves:    3199
 k-point 48 :   0.1954 0.1954 0.0000  plane waves:    3193
 k-point 49 :   0.2069 0.2069 0.0000  plane waves:    3193
 k-point 50 :   0.2184 0.2184 0.0000  plane waves:    3187
 k-point 51 :   0.2299 0.2299 0.0000  plane waves:    3187
 k-point 52 :   0.2414 0.2414 0.0000  plane waves:    3193
 k-point 53 :   0.2528 0.2528 0.0000  plane waves:    3197
 k-point 54 :   0.2643 0.2643 0.0000  plane waves:    3191
 k-point 55 :   0.2758 0.2758 0.0000  plane waves:    3191
 k-point 56 :   0.2873 0.2873 0.0000  plane waves:    3183
 k-point 57 :   0.2988 0.2988 0.0000  plane waves:    3183
 k-point 58 :   0.3103 0.3103 0.0000  plane waves:    3177
 k-point 59 :   0.3218 0.3218 0.0000  plane waves:    3169
 k-point 60 :   0.3333 0.3333 0.0000  plane waves:    3159
 k-point 61 :   0.3333 0.3333 0.0000  plane waves:    3159
 k-point 62 :   0.3390 0.3218 0.0000  plane waves:    3159
 k-point 63 :   0.3448 0.3103 0.0000  plane waves:    3165
 k-point 64 :   0.3505 0.2988 0.0000  plane waves:    3163
 k-point 65 :   0.3563 0.2873 0.0000  plane waves:    3175
 k-point 66 :   0.3620 0.2758 0.0000  plane waves:    3175
 k-point 67 :   0.3678 0.2643 0.0000  plane waves:    3183
 k-point 68 :   0.3735 0.2528 0.0000  plane waves:    3187
 k-point 69 :   0.3793 0.2414 0.0000  plane waves:    3187
 k-point 70 :   0.3850 0.2299 0.0000  plane waves:    3185
 k-point 71 :   0.3908 0.2184 0.0000  plane waves:    3189
 k-point 72 :   0.3965 0.2069 0.0000  plane waves:    3185
 k-point 73 :   0.4023 0.1954 0.0000  plane waves:    3186
 k-point 74 :   0.4080 0.1839 0.0000  plane waves:    3190
 k-point 75 :   0.4138 0.1724 0.0000  plane waves:    3200
 k-point 76 :   0.4195 0.1609 0.0000  plane waves:    3198
 k-point 77 :   0.4253 0.1494 0.0000  plane waves:    3200
 k-point 78 :   0.4310 0.1379 0.0000  plane waves:    3192
 k-point 79 :   0.4368 0.1264 0.0000  plane waves:    3204
 k-point 80 :   0.4425 0.1149 0.0000  plane waves:    3200
 k-point 81 :   0.4483 0.1034 0.0000  plane waves:    3200
 k-point 82 :   0.4540 0.0919 0.0000  plane waves:    3196
 k-point 83 :   0.4598 0.0805 0.0000  plane waves:    3190
 k-point 84 :   0.4655 0.0690 0.0000  plane waves:    3196
 k-point 85 :   0.4713 0.0575 0.0000  plane waves:    3202
 k-point 86 :   0.4770 0.0460 0.0000  plane waves:    3206
 k-point 87 :   0.4828 0.0345 0.0000  plane waves:    3212
 k-point 88 :   0.4885 0.0230 0.0000  plane waves:    3212
 k-point 89 :   0.4943 0.0115 0.0000  plane waves:    3220
 k-point 90 :   0.5000 0.0000 0.0000  plane waves:    3224

 maximum and minimum number of plane-waves per node :       546      518

 maximum number of plane-waves:      3224
 maximum index in each direction: 
   IXMAX=    5   IYMAX=    5   IZMAX=   32
   IXMIN=   -5   IYMIN=   -5   IZMIN=  -32


 parallel 3D FFT for wavefunctions:
    minimum data exchange during FFTs selected (reduces bandwidth)
 parallel 3D FFT for charge:
    minimum data exchange during FFTs selected (reduces bandwidth)


 total amount of memory used by VASP MPI-rank0    61328. kBytes
=======================================================================

   base      :      30000. kBytes
   nonl-proj :      21047. kBytes
   fftplans  :        238. kBytes
   grid      :        352. kBytes
   one-center:         15. kBytes
   wavefun   :       9676. kBytes
 
     INWAV:  cpu time    0.0000: real time    0.0000
 initial charge density was supplied:
 number of electron      36.0000101 magnetization 
 keeping initial charge density in first step


--------------------------------------------------------------------------------------------------------


 Maximum index for augmentation-charges          172 (set IRDMAX)


--------------------------------------------------------------------------------------------------------


 First call to EWALD:  gamma=   0.316
 Maximum number of real-space cells 5x 5x 1
 Maximum number of reciprocal cells 2x 2x 9

    FEWALD:  cpu time    0.0014: real time    0.0014


--------------------------------------- Iteration      1(   1)  ---------------------------------------


    POTLOK:  cpu time    0.0040: real time    0.0055
    SETDIJ:  cpu time    0.0016: real time    0.0016
     EDDAV:  cpu time    1.1437: real time    1.1470
       DOS:  cpu time    0.0029: real time    0.0029
    --------------------------------------------
      LOOP:  cpu time    1.1522: real time    1.1571

 eigenvalue-minimisations  :  8640
 total energy-change (2. order) : 0.1560696E+03  (-0.1186712E+04)
 number of electron      36.0000101 magnetization 
 augmentation part       36.0000101 magnetization 

 Free energy of the ion-electron system (eV)
  ---------------------------------------------------
  alpha Z        PSCENC =        68.88242450
  Ewald energy   TEWEN  =      2358.05440295
  -Hartree energ DENC   =     -3933.96053417
  -exchange      EXHF   =         0.00000000
  -V(xc)+E(xc)   XCENC  =       -56.81119475
  PAW double counting   =       931.04810714     -791.45045404
  entropy T*S    EENTRO =        -0.01132977
  eigenvalues    EBANDS =        50.92143247
  atomic energy  EATOM  =      1529.39674839
  Solvation  Ediel_sol  =         0.00000000
  ---------------------------------------------------
  free energy    TOTEN  =       156.06960272 eV

  energy without entropy =      156.08093249  energy(sigma->0) =      156.07526760


--------------------------------------------------------------------------------------------------------




--------------------------------------- Iteration      1(   2)  ---------------------------------------


     EDDAV:  cpu time    1.3268: real time    1.3304
       DOS:  cpu time    0.0016: real time    0.0016
    --------------------------------------------
      LOOP:  cpu time    1.3284: real time    1.3320

 eigenvalue-minimisations  : 10792
 total energy-change (2. order) :-0.1877827E+03  (-0.1743202E+03)
 number of electron      36.0000101 magnetization 
 augmentation part       36.0000101 magnetization 

 Free energy of the ion-electron system (eV)
  ---------------------------------------------------
  alpha Z        PSCENC =        68.88242450
  Ewald energy   TEWEN  =      2358.05440295
  -Hartree energ DENC   =     -3933.96053417
  -exchange      EXHF   =         0.00000000
  -V(xc)+E(xc)   XCENC  =       -56.81119475
  PAW double counting   =       931.04810714     -791.45045404
  entropy T*S    EENTRO =        -0.00000000
  eigenvalues    EBANDS =      -136.87261178
  atomic energy  EATOM  =      1529.39674839
  Solvation  Ediel_sol  =         0.00000000
  ---------------------------------------------------
  free energy    TOTEN  =       -31.71311177 eV

  energy without entropy =      -31.71311177  energy(sigma->0) =      -31.71311177


--------------------------------------------------------------------------------------------------------




--------------------------------------- Iteration      1(   3)  ---------------------------------------


     EDDAV:  cpu time    1.3181: real time    1.3218
       DOS:  cpu time    0.0016: real time    0.0016
    --------------------------------------------
      LOOP:  cpu time    1.3197: real time    1.3233

 eigenvalue-minimisations  : 10648
 total energy-change (2. order) :-0.1274465E+02  (-0.1252722E+02)
 number of electron      36.0000101 magnetization 
 augmentation part       36.0000101 magnetization 

 Free energy of the ion-electron system (eV)
  ---------------------------------------------------
  alpha Z        PSCENC =        68.88242450
  Ewald energy   TEWEN  =      2358.05440295
  -Hartree energ DENC   =     -3933.96053417
  -exchange      EXHF   =         0.00000000
  -V(xc)+E(xc)   XCENC  =       -56.81119475
  PAW double counting   =       931.04810714     -791.45045404
  entropy T*S    EENTRO =        -0.00000000
  eigenvalues    EBANDS =      -149.61726461
  atomic energy  EATOM  =      1529.39674839
  Solvation  Ediel_sol  =         0.00000000
  ---------------------------------------------------
  free energy    TOTEN  =       -44.45776459 eV

  energy without entropy =      -44.45776459  energy(sigma->0) =      -44.45776459


--------------------------------------------------------------------------------------------------------




--------------------------------------- Iteration      1(   4)  ---------------------------------------


     EDDAV:  cpu time    1.3120: real time    1.3156
       DOS:  cpu time    0.0016: real time    0.0016
    --------------------------------------------
      LOOP:  cpu time    1.3136: real time    1.3171

 eigenvalue-minimisations  : 10688
 total energy-change (2. order) :-0.2046545E+00  (-0.2045261E+00)
 number of electron      36.0000101 magnetization 
 augmentation part       36.0000101 magnetization 

 Free energy of the ion-electron system (eV)
  ---------------------------------------------------
  alpha Z        PSCENC =        68.88242450
  Ewald energy   TEWEN  =      2358.05440295
  -Hartree energ DENC   =     -3933.96053417
  -exchange      EXHF   =         0.00000000
  -V(xc)+E(xc)   XCENC  =       -56.81119475
  PAW double counting   =       931.04810714     -791.45045404
  entropy T*S    EENTRO =        -0.00000000
  eigenvalues    EBANDS =      -149.82191909
  atomic energy  EATOM  =      1529.39674839
  Solvation  Ediel_sol  =         0.00000000
  ---------------------------------------------------
  free energy    TOTEN  =       -44.66241908 eV

  energy without entropy =      -44.66241908  energy(sigma->0) =      -44.66241908


--------------------------------------------------------------------------------------------------------




--------------------------------------- Iteration      1(   5)  ---------------------------------------


     EDDAV:  cpu time    1.3532: real time    1.3569
       DOS:  cpu time    0.0015: real time    0.0015
    --------------------------------------------
      LOOP:  cpu time    1.3547: real time    1.3585

 eigenvalue-minimisations  : 11144
 total energy-change (2. order) :-0.5566126E-02  (-0.5565903E-02)
 number of electron      36.0000101 magnetization 
 augmentation part       36.0000101 magnetization 

 Free energy of the ion-electron system (eV)
  ---------------------------------------------------
  alpha Z        PSCENC =        68.88242450
  Ewald energy   TEWEN  =      2358.05440295
  -Hartree energ DENC   =     -3933.96053417
  -exchange      EXHF   =         0.00000000
  -V(xc)+E(xc)   XCENC  =       -56.81119475
  PAW double counting   =       931.04810714     -791.45045404
  entropy T*S    EENTRO =        -0.00000000
  eigenvalues    EBANDS =      -149.82748522
  atomic energy  EATOM  =      1529.39674839
  Solvation  Ediel_sol  =         0.00000000
  ---------------------------------------------------
  free energy    TOTEN  =       -44.66798520 eV

  energy without entropy =      -44.66798520  energy(sigma->0) =      -44.66798520


--------------------------------------------------------------------------------------------------------




--------------------------------------- Iteration      1(   6)  ---------------------------------------


    EDDIAG:  cpu time    0.3111: real time    0.3120
  RMM-DIIS:  cpu time    0.5434: real time    0.5450
    ORTHCH:  cpu time    0.0333: real time    0.0333
       DOS:  cpu time    0.0016: real time    0.0016
    --------------------------------------------
      LOOP:  cpu time    0.8894: real time    0.8918

 eigenvalue-minimisations  :  8969
 total energy-change (2. order) :-0.2137347E-03  (-0.2137347E-03)
 number of electron      36.0000101 magnetization 
 augmentation part       36.0000101 magnetization 

 Free energy of the ion-electron system (eV)
  ---------------------------------------------------
  alpha Z        PSCENC =        68.88242450
  Ewald energy   TEWEN  =      2358.05440295
  -Hartree energ DENC   =     -3933.96053417
  -exchange      EXHF   =         0.00000000
  -V(xc)+E(xc)   XCENC  =       -56.81119475
  PAW double counting   =       931.04810714     -791.45045404
  entropy T*S    EENTRO =        -0.00000000
  eigenvalues    EBANDS =      -149.82769895
  atomic energy  EATOM  =      1529.39674839
  Solvation  Ediel_sol  =         0.00000000
  ---------------------------------------------------
  free energy    TOTEN  =       -44.66819894 eV

  energy without entropy =      -44.66819894  energy(sigma->0) =      -44.66819894


--------------------------------------------------------------------------------------------------------




--------------------------------------- Iteration      1(   7)  ---------------------------------------


    EDDIAG:  cpu time    0.3145: real time    0.3153
  RMM-DIIS:  cpu time    0.8198: real time    0.8222
    ORTHCH:  cpu time    0.0332: real time    0.0333
       DOS:  cpu time    0.0016: real time    0.0016
    --------------------------------------------
      LOOP:  cpu time    1.1690: real time    1.1724

 eigenvalue-minimisations  : 13451
 total energy-change (2. order) :-0.2302686E-04  (-0.2258487E-04)
 number of electron      36.0000101 magnetization 
 augmentation part       36.0000101 magnetization 

 Free energy of the ion-electron system (eV)
  ---------------------------------------------------
  alpha Z        PSCENC =        68.88242450
  Ewald energy   TEWEN  =      2358.05440295
  -Hartree energ DENC   =     -3933.96053417
  -exchange      EXHF   =         0.00000000
  -V(xc)+E(xc)   XCENC  =       -56.81119475
  PAW double counting   =       931.04810714     -791.45045404
  entropy T*S    EENTRO =        -0.00000000
  eigenvalues    EBANDS =      -149.82772198
  atomic energy  EATOM  =      1529.39674839
  Solvation  Ediel_sol  =         0.00000000
  ---------------------------------------------------
  free energy    TOTEN  =       -44.66822196 eV

  energy without entropy =      -44.66822196  energy(sigma->0) =      -44.66822196


--------------------------------------------------------------------------------------------------------




--------------------------------------- Iteration      1(   8)  ---------------------------------------


    EDDIAG:  cpu time    0.3124: real time    0.3133
  RMM-DIIS:  cpu time    0.5524: real time    0.5539
    ORTHCH:  cpu time    0.0332: real time    0.0333
       DOS:  cpu time    0.0016: real time    0.0016
    --------------------------------------------
      LOOP:  cpu time    0.8996: real time    0.9021

 eigenvalue-minimisations  :  8073
 total energy-change (2. order) :-0.9267046E-07  (-0.7886279E-07)
 number of electron      36.0000101 magnetization 
 augmentation part       36.0000101 magnetization 

 Free energy of the ion-electron system (eV)
  ---------------------------------------------------
  alpha Z        PSCENC =        68.88242450
  Ewald energy   TEWEN  =      2358.05440295
  -Hartree energ DENC   =     -3933.96053417
  -exchange      EXHF   =         0.00000000
  -V(xc)+E(xc)   XCENC  =       -56.81119475
  PAW double counting   =       931.04810714     -791.45045404
  entropy T*S    EENTRO =        -0.00000000
  eigenvalues    EBANDS =      -149.82772207
  atomic energy  EATOM  =      1529.39674839
  Solvation  Ediel_sol  =         0.00000000
  ---------------------------------------------------
  free energy    TOTEN  =       -44.66822206 eV

  energy without entropy =      -44.66822206  energy(sigma->0) =      -44.66822206


--------------------------------------------------------------------------------------------------------




 average (electrostatic) potential at core
  the test charge radii are     0.9698  1.2296  1.1823
  (the norm of the test charge is              1.0000)
       1 -90.3389       2 -90.3554       3 -90.3740       4 -90.3612       5 -42.5042
       6 -44.6244
 
 
 
 E-fermi :   1.9497     XC(G=0):  -7.0726     alpha+bet : -7.2385


 k-point     1 :       0.5000    0.0000    0.0000
  band No.  band energies     occupation 
      1     -11.5790      2.00000
      2     -11.3587      2.00000
      3     -11.2557      2.00000
      4     -11.1020      2.00000
      5      -5.3730      2.00000
      6      -4.8271      2.00000
      7      -4.0774      2.00000
      8      -3.8812      2.00000
      9      -3.3851      2.00000
     10      -3.0448      2.00000
     11      -2.3122      2.00000
     12      -2.2350      2.00000
     13      -1.0523      2.00000
     14      -0.9064      2.00000
     15      -0.1913      2.00000
     16      -0.0338      2.00000
     17       0.1677      2.00000
     18       0.2890      2.00000
     19       3.1044      0.00000
     20       3.6192      0.00000
     21       3.8999      0.00000
     22       4.3710      0.00000
     23       4.7579      0.00000
     24       5.1745      0.00000
     25       5.3215      0.00000
     26       5.8378      0.00000
     27       6.2437      0.00000
     28       7.1316      0.00000
     29       8.5685      0.00000
     30       8.9125      0.00000
     31       9.2490      0.00000
     32       9.6473      0.00000
     33      10.0750      0.00000
     34      10.4742      0.00000
     35      10.6677      0.00000
     36      11.2521      0.00000
     37      11.8040      0.00000
     38      11.9810      0.00000
     39      12.1301      0.00000
     40      12.5293      0.00000
     41      12.8428      0.00000
     42      13.0842      0.00000
     43      14.2019      0.00000
     44      14.6441      0.00000
     45      15.2436      0.00000
     46      15.6547      0.00000
     47      16.1876      0.00000
     48      17.2389      0.00000

 k-point     2 :       0.4828    0.0000    0.0000
  band No.  band energies     occupation 
      1     -11.5874      2.00000
      2     -11.3657      2.00000
      3     -11.2586      2.00000
      4     -11.1047      2.00000
      5      -5.3638      2.00000
      6      -4.8201      2.00000
      7      -4.0704      2.00000
      8      -3.8739      2.00000
      9      -3.3829      2.00000
     10      -3.0415      2.00000
     11      -2.3085      2.00000
     12      -2.2315      2.00000
     13      -1.0515      2.00000
     14      -0.9026      2.00000
     15      -0.1949      2.00000
     16      -0.0383      2.00000
     17       0.1576      2.00000
     18       0.2827      2.00000
     19       3.1032      0.00000
     20       3.6124      0.00000
     21       3.8948      0.00000
     22       4.3550      0.00000
     23       4.7550      0.00000
     24       5.1725      0.00000
     25       5.3190      0.00000
     26       5.8352      0.00000
     27       6.2714      0.00000
     28       7.1561      0.00000
     29       8.5682      0.00000
     30       8.9085      0.00000
     31       9.2343      0.00000
     32       9.6389      0.00000
     33      10.0701      0.00000
     34      10.4917      0.00000
     35      10.6711      0.00000
     36      11.2341      0.00000
     37      11.8197      0.00000
     38      11.9613      0.00000
     39      12.1694      0.00000
     40      12.5436      0.00000
     41      12.8694      0.00000
     42      13.1139      0.00000
     43      14.1518      0.00000
     44      14.7095      0.00000
     45      15.2116      0.00000
     46      15.6620      0.00000
     47      16.1737      0.00000
     48      17.2453      0.00000

 k-point     3 :       0.4655    0.0000    0.0000
  band No.  band energies     occupation 
      1     -11.6124      2.00000
      2     -11.3864      2.00000
      3     -11.2676      2.00000
      4     -11.1128      2.00000
      5      -5.3364      2.00000
      6      -4.7991      2.00000
      7      -4.0494      2.00000
      8      -3.8524      2.00000
      9      -3.3767      2.00000
     10      -3.0319      2.00000
     11      -2.2974      2.00000
     12      -2.2209      2.00000
     13      -1.0491      2.00000
     14      -0.8913      2.00000
     15      -0.2056      2.00000
     16      -0.0517      2.00000
     17       0.1292      2.00000
     18       0.2638      2.00000
     19       3.0998      0.00000
     20       3.5926      0.00000
     21       3.8800      0.00000
     22       4.3109      0.00000
     23       4.7453      0.00000
     24       5.1666      0.00000
     25       5.3107      0.00000
     26       5.8276      0.00000
     27       6.3517      0.00000
     28       7.2279      0.00000
     29       8.5677      0.00000
     30       8.8984      0.00000
     31       9.1941      0.00000
     32       9.6083      0.00000
     33      10.0650      0.00000
     34      10.5286      0.00000
     35      10.6762      0.00000
     36      11.2121      0.00000
     37      11.8665      0.00000
     38      11.9088      0.00000
     39      12.2636      0.00000
     40      12.5862      0.00000
     41      12.9444      0.00000
     42      13.2014      0.00000
     43      14.0556      0.00000
     44      14.8486      0.00000
     45      15.1285      0.00000
     46      15.6746      0.00000
     47      16.1308      0.00000
     48      17.1657      0.00000

 k-point     4 :       0.4483    0.0000    0.0000
  band No.  band energies     occupation 
      1     -11.6533      2.00000
      2     -11.4202      2.00000
      3     -11.2824      2.00000
      4     -11.1262      2.00000
      5      -5.2916      2.00000
      6      -4.7650      2.00000
      7      -4.0150      2.00000
      8      -3.8171      2.00000
      9      -3.3671      2.00000
     10      -3.0167      2.00000
     11      -2.2790      2.00000
     12      -2.2034      2.00000
     13      -1.0442      2.00000
     14      -0.8730      2.00000
     15      -0.2235      2.00000
     16      -0.0741      2.00000
     17       0.0866      2.00000
     18       0.2332      2.00000
     19       3.0947      0.00000
     20       3.5613      0.00000
     21       3.8566      0.00000
     22       4.2474      0.00000
     23       4.7265      0.00000
     24       5.1566      0.00000
     25       5.2948      0.00000
     26       5.8147      0.00000
     27       6.4769      0.00000
     28       7.3426      0.00000
     29       8.5671      0.00000
     30       8.8866      0.00000
     31       9.1364      0.00000
     32       9.5543      0.00000
     33      10.0589      0.00000
     34      10.5645      0.00000
     35      10.6765      0.00000
     36      11.2338      0.00000
     37      11.8488      0.00000
     38      11.9434      0.00000
     39      12.3578      0.00000
     40      12.6561      0.00000
     41      13.0712      0.00000
     42      13.3332      0.00000
     43      13.9684      0.00000
     44      14.9479      0.00000
     45      15.0677      0.00000
     46      15.6794      0.00000
     47      16.0623      0.00000
     48      17.0963      0.00000

 k-point     5 :       0.4310    0.0000    0.0000
  band No.  band energies     occupation 
      1     -11.7087      2.00000
      2     -11.4663      2.00000
      3     -11.3028      2.00000
      4     -11.1446      2.00000
      5      -5.2307      2.00000
      6      -4.7185      2.00000
      7      -3.9678      2.00000
      8      -3.7687      2.00000
      9      -3.3552      2.00000
     10      -2.9972      2.00000
     11      -2.2533      2.00000
     12      -2.1789      2.00000
     13      -1.0359      2.00000
     14      -0.8483      2.00000
     15      -0.2489      2.00000
     16      -0.1055      2.00000
     17       0.0359      2.00000
     18       0.1930      2.00000
     19       3.0890      0.00000
     20       3.5204      0.00000
     21       3.8265      0.00000
     22       4.1732      0.00000
     23       4.6971      0.00000
     24       5.1423      0.00000
     25       5.2693      0.00000
     26       5.7964      0.00000
     27       6.6374      0.00000
     28       7.4932      0.00000
     29       8.5660      0.00000
     30       8.8777      0.00000
     31       9.0692      0.00000
     32       9.4890      0.00000
     33      10.0284      0.00000
     34      10.5935      0.00000
     35      10.6893      0.00000
     36      11.3016      0.00000
     37      11.8070      0.00000
     38      12.0478      0.00000
     39      12.4181      0.00000
     40      12.7513      0.00000
     41      13.2553      0.00000
     42      13.4850      0.00000
     43      13.9138      0.00000
     44      14.8250      0.00000
     45      15.1934      0.00000
     46      15.6754      0.00000
     47      15.9686      0.00000
     48      17.0551      0.00000

 k-point     6 :       0.4138    0.0000    0.0000
  band No.  band energies     occupation 
      1     -11.7773      2.00000
      2     -11.5236      2.00000
      3     -11.3285      2.00000
      4     -11.1676      2.00000
      5      -5.1554      2.00000
      6      -4.6613      2.00000
      7      -3.9090      2.00000
      8      -3.7087      2.00000
      9      -3.3419      2.00000
     10      -2.9752      2.00000
     11      -2.2204      2.00000
     12      -2.1476      2.00000
     13      -1.0235      2.00000
     14      -0.8176      2.00000
     15      -0.2818      2.00000
     16      -0.1458      2.00000
     17      -0.0168      2.00000
     18       0.1473      2.00000
     19       3.0838      0.00000
     20       3.4724      0.00000
     21       3.7920      0.00000
     22       4.0949      0.00000
     23       4.6566      0.00000
     24       5.1235      0.00000
     25       5.2332      0.00000
     26       5.7723      0.00000
     27       6.8234      0.00000
     28       7.6704      0.00000
     29       8.5601      0.00000
     30       8.8718      0.00000
     31       9.0052      0.00000
     32       9.4278      0.00000
     33       9.9622      0.00000
     34      10.6022      0.00000
     35      10.7477      0.00000
     36      11.3789      0.00000
     37      11.8042      0.00000
     38      12.1771      0.00000
     39      12.4502      0.00000
     40      12.8697      0.00000
     41      13.4704      0.00000
     42      13.6388      0.00000
     43      13.9052      0.00000
     44      14.6523      0.00000
     45      15.3111      0.00000
     46      15.6805      0.00000
     47      15.8518      0.00000
     48      16.8753      0.00000

 k-point     7 :       0.3966    0.0000    0.0000
  band No.  band energies     occupation 
      1     -11.8573      2.00000
      2     -11.5908      2.00000
      3     -11.3590      2.00000
      4     -11.1948      2.00000
      5      -5.0678      2.00000
      6      -4.5948      2.00000
      7      -3.8404      2.00000
      8      -3.6394      2.00000
      9      -3.3273      2.00000
     10      -2.9524      2.00000
     11      -2.1805      2.00000
     12      -2.1096      2.00000
     13      -1.0059      2.00000
     14      -0.7810      2.00000
     15      -0.3223      2.00000
     16      -0.1947      2.00000
     17      -0.0651      2.00000
     18       0.1009      2.00000
     19       3.0805      0.00000
     20       3.4193      0.00000
     21       3.7556      0.00000
     22       4.0167      0.00000
     23       4.6049      0.00000
     24       5.1000      0.00000
     25       5.1855      0.00000
     26       5.7423      0.00000
     27       7.0257      0.00000
     28       7.8622      0.00000
     29       8.5386      0.00000
     30       8.8530      0.00000
     31       8.9777      0.00000
     32       9.3840      0.00000
     33       9.8748      0.00000
     34      10.5937      0.00000
     35      10.8429      0.00000
     36      11.4297      0.00000
     37      11.8513      0.00000
     38      12.3277      0.00000
     39      12.4797      0.00000
     40      13.0081      0.00000
     41      13.6244      0.00000
     42      13.8298      0.00000
     43      13.9479      0.00000
     44      14.4598      0.00000
     45      15.3709      0.00000
     46      15.7147      0.00000
     47      15.7290      0.00000
     48      16.7569      0.00000

 k-point     8 :       0.3793    0.0000    0.0000
  band No.  band energies     occupation 
      1     -11.9469      2.00000
      2     -11.6667      2.00000
      3     -11.3936      2.00000
      4     -11.2257      2.00000
      5      -4.9705      2.00000
      6      -4.5210      2.00000
      7      -3.7646      2.00000
      8      -3.5650      2.00000
      9      -3.3086      2.00000
     10      -2.9310      2.00000
     11      -2.1337      2.00000
     12      -2.0650      2.00000
     13      -0.9827      2.00000
     14      -0.7385      2.00000
     15      -0.3705      2.00000
     16      -0.2520      2.00000
     17      -0.1033      2.00000
     18       0.0595      2.00000
     19       3.0803      0.00000
     20       3.3634      0.00000
     21       3.7200      0.00000
     22       3.9411      0.00000
     23       4.5427      0.00000
     24       5.0714      0.00000
     25       5.1260      0.00000
     26       5.7058      0.00000
     27       7.2354      0.00000
     28       8.0524      0.00000
     29       8.4862      0.00000
     30       8.8148      0.00000
     31       9.0156      0.00000
     32       9.3686      0.00000
     33       9.7852      0.00000
     34      10.5792      0.00000
     35      10.9443      0.00000
     36      11.4531      0.00000
     37      11.9289      0.00000
     38      12.4960      0.00000
     39      12.5338      0.00000
     40      13.1620      0.00000
     41      13.6766      0.00000
     42      13.9776      0.00000
     43      14.0777      0.00000
     44      14.2804      0.00000
     45      15.3883      0.00000
     46      15.5713      0.00000
     47      15.8157      0.00000
     48      16.5728      0.00000

 k-point     9 :       0.3621    0.0000    0.0000
  band No.  band energies     occupation 
      1     -12.0443      2.00000
      2     -11.7496      2.00000
      3     -11.4319      2.00000
      4     -11.2598      2.00000
      5      -4.8667      2.00000
      6      -4.4422      2.00000
      7      -3.6869      2.00000
      8      -3.4924      2.00000
      9      -3.2773      2.00000
     10      -2.9123      2.00000
     11      -2.0803      2.00000
     12      -2.0141      2.00000
     13      -0.9532      2.00000
     14      -0.6901      2.00000
     15      -0.4263      2.00000
     16      -0.3172      2.00000
     17      -0.1264      2.00000
     18       0.0288      2.00000
     19       3.0845      0.00000
     20       3.3065      0.00000
     21       3.6874      0.00000
     22       3.8693      0.00000
     23       4.4708      0.00000
     24       5.0370      0.00000
     25       5.0555      0.00000
     26       5.6626      0.00000
     27       7.4432      0.00000
     28       8.2146      0.00000
     29       8.4033      0.00000
     30       8.7862      0.00000
     31       9.1081      0.00000
     32       9.3895      0.00000
     33       9.7067      0.00000
     34      10.5644      0.00000
     35      11.0205      0.00000
     36      11.4778      0.00000
     37      12.0055      0.00000
     38      12.6282      0.00000
     39      12.6779      0.00000
     40      13.3264      0.00000
     41      13.6648      0.00000
     42      13.9610      0.00000
     43      14.0347      0.00000
     44      14.4049      0.00000
     45      15.4008      0.00000
     46      15.4258      0.00000
     47      15.9369      0.00000
     48      16.3307      0.00000

 k-point    10 :       0.3448    0.0000    0.0000
  band No.  band energies     occupation 
      1     -12.1477      2.00000
      2     -11.8381      2.00000
      3     -11.4730      2.00000
      4     -11.2965      2.00000
      5      -4.7609      2.00000
      6      -4.3608      2.00000
      7      -3.6175      2.00000
      8      -3.4267      2.00000
      9      -3.2207      2.00000
     10      -2.8963      2.00000
     11      -2.0205      2.00000
     12      -1.9571      2.00000
     13      -0.9172      2.00000
     14      -0.6356      2.00000
     15      -0.4893      2.00000
     16      -0.3897      2.00000
     17      -0.1311      2.00000
     18       0.0134      2.00000
     19       3.0940      0.00000
     20       3.2507      0.00000
     21       3.6600      0.00000
     22       3.8022      0.00000
     23       4.3906      0.00000
     24       4.9728      0.00000
     25       4.9988      0.00000
     26       5.6124      0.00000
     27       7.6373      0.00000
     28       8.2450      0.00000
     29       8.3774      0.00000
     30       8.7888      0.00000
     31       9.2482      0.00000
     32       9.4493      0.00000
     33       9.6467      0.00000
     34      10.5516      0.00000
     35      11.0440      0.00000
     36      11.5317      0.00000
     37      12.0686      0.00000
     38      12.7578      0.00000
     39      12.8684      0.00000
     40      13.4937      0.00000
     41      13.5860      0.00000
     42      13.7227      0.00000
     43      14.0740      0.00000
     44      14.5909      0.00000
     45      15.2527      0.00000
     46      15.4951      0.00000
     47      15.9965      0.00000
     48      16.1595      0.00000

 k-point    11 :       0.3276    0.0000    0.0000
  band No.  band energies     occupation 
      1     -12.2554      2.00000
      2     -11.9308      2.00000
      3     -11.5163      2.00000
      4     -11.3353      2.00000
      5      -4.6592      2.00000
      6      -4.2793      2.00000
      7      -3.5711      2.00000
      8      -3.3569      2.00000
      9      -3.1372      2.00000
     10      -2.8804      2.00000
     11      -1.9545      2.00000
     12      -1.8943      2.00000
     13      -0.8749      2.00000
     14      -0.5754      2.00000
     15      -0.5587      2.00000
     16      -0.4684      2.00000
     17      -0.1154      2.00000
     18       0.0171      2.00000
     19       3.1095      0.00000
     20       3.1980      0.00000
     21       3.6394      0.00000
     22       3.7402      0.00000
     23       4.3038      0.00000
     24       4.8826      0.00000
     25       4.9531      0.00000
     26       5.5548      0.00000
     27       7.7952      0.00000
     28       8.1365      0.00000
     29       8.4155      0.00000
     30       8.8433      0.00000
     31       9.4251      0.00000
     32       9.5439      0.00000
     33       9.6114      0.00000
     34      10.5399      0.00000
     35      11.0152      0.00000
     36      11.6116      0.00000
     37      12.1199      0.00000
     38      12.8999      0.00000
     39      13.0619      0.00000
     40      13.4210      0.00000
     41      13.5051      0.00000
     42      13.6564      0.00000
     43      14.1105      0.00000
     44      14.6850      0.00000
     45      15.0931      0.00000
     46      15.6758      0.00000
     47      15.7727      0.00000
     48      15.8920      0.00000

 k-point    12 :       0.3103    0.0000    0.0000
  band No.  band energies     occupation 
      1     -12.3658      2.00000
      2     -12.0263      2.00000
      3     -11.5613      2.00000
      4     -11.3756      2.00000
      5      -4.5706      2.00000
      6      -4.2000      2.00000
      7      -3.5483      2.00000
      8      -3.2707      2.00000
      9      -3.0411      2.00000
     10      -2.8555      2.00000
     11      -1.8828      2.00000
     12      -1.8259      2.00000
     13      -0.8269      2.00000
     14      -0.6350      2.00000
     15      -0.5526      2.00000
     16      -0.5085      2.00000
     17      -0.0788      2.00000
     18       0.0415      2.00000
     19       3.1314      0.00000
     20       3.1503      0.00000
     21       3.6268      0.00000
     22       3.6835      0.00000
     23       4.2127      0.00000
     24       4.7849      0.00000
     25       4.9018      0.00000
     26       5.4896      0.00000
     27       7.8534      0.00000
     28       8.0555      0.00000
     29       8.4309      0.00000
     30       8.9396      0.00000
     31       9.5819      0.00000
     32       9.6166      0.00000
     33       9.6955      0.00000
     34      10.5253      0.00000
     35      10.9556      0.00000
     36      11.6893      0.00000
     37      12.1609      0.00000
     38      13.0023      0.00000
     39      13.2158      0.00000
     40      13.2532      0.00000
     41      13.3488      0.00000
     42      13.7982      0.00000
     43      14.1207      0.00000
     44      14.7238      0.00000
     45      14.9351      0.00000
     46      15.4683      0.00000
     47      15.6714      0.00000
     48      15.7759      0.00000

 k-point    13 :       0.2931    0.0000    0.0000
  band No.  band energies     occupation 
      1     -12.4774      2.00000
      2     -12.1233      2.00000
      3     -11.6073      2.00000
      4     -11.4168      2.00000
      5      -4.5066      2.00000
      6      -4.1255      2.00000
      7      -3.5312      2.00000
      8      -3.1737      2.00000
      9      -2.9546      2.00000
     10      -2.8007      2.00000
     11      -1.8057      2.00000
     12      -1.7525      2.00000
     13      -0.7740      2.00000
     14      -0.7159      2.00000
     15      -0.6409      2.00000
     16      -0.4377      2.00000
     17      -0.0222      2.00000
     18       0.0867      2.00000
     19       3.1098      0.00000
     20       3.1600      0.00000
     21       3.6227      0.00000
     22       3.6328      0.00000
     23       4.1196      0.00000
     24       4.6820      0.00000
     25       4.8443      0.00000
     26       5.4168      0.00000
     27       7.7646      0.00000
     28       8.0314      0.00000
     29       8.4735      0.00000
     30       9.0499      0.00000
     31       9.5902      0.00000
     32       9.7860      0.00000
     33       9.8862      0.00000
     34      10.5015      0.00000
     35      10.8819      0.00000
     36      11.7344      0.00000
     37      12.1886      0.00000
     38      12.8952      0.00000
     39      13.1706      0.00000
     40      13.2625      0.00000
     41      13.4276      0.00000
     42      13.9025      0.00000
     43      14.0926      0.00000
     44      14.7471      0.00000
     45      14.7882      0.00000
     46      15.2060      0.00000
     47      15.4908      0.00000
     48      15.5992      0.00000

 k-point    14 :       0.2759    0.0000    0.0000
  band No.  band energies     occupation 
      1     -12.5889      2.00000
      2     -12.2205      2.00000
      3     -11.6536      2.00000
      4     -11.4584      2.00000
      5      -4.4772      2.00000
      6      -4.0611      2.00000
      7      -3.5004      2.00000
      8      -3.0761      2.00000
      9      -2.8866      2.00000
     10      -2.7011      2.00000
     11      -1.7238      2.00000
     12      -1.6743      2.00000
     13      -0.8008      2.00000
     14      -0.7325      2.00000
     15      -0.7173      2.00000
     16      -0.3637      2.00000
     17       0.0523      2.00000
     18       0.1512      2.00000
     19       3.0790      0.00000
     20       3.1950      0.00000
     21       3.5877      0.00000
     22       3.6280      0.00000
     23       4.0274      0.00000
     24       4.5764      0.00000
     25       4.7809      0.00000
     26       5.3366      0.00000
     27       7.6292      0.00000
     28       7.9754      0.00000
     29       8.5476      0.00000
     30       9.1553      0.00000
     31       9.6181      0.00000
     32       9.9484      0.00000
     33      10.0964      0.00000
     34      10.4647      0.00000
     35      10.8016      0.00000
     36      11.7252      0.00000
     37      12.1951      0.00000
     38      12.7345      0.00000
     39      13.0959      0.00000
     40      13.3066      0.00000
     41      13.5731      0.00000
     42      13.9488      0.00000
     43      14.0434      0.00000
     44      14.6275      0.00000
     45      14.7106      0.00000
     46      15.0782      0.00000
     47      15.2619      0.00000
     48      15.4218      0.00000

 k-point    15 :       0.2586    0.0000    0.0000
  band No.  band energies     occupation 
      1     -12.6990      2.00000
      2     -12.3168      2.00000
      3     -11.6997      2.00000
      4     -11.4999      2.00000
      5      -4.4852      2.00000
      6      -4.0169      2.00000
      7      -3.4425      2.00000
      8      -2.9852      2.00000
      9      -2.8120      2.00000
     10      -2.5745      2.00000
     11      -1.6377      2.00000
     12      -1.5919      2.00000
     13      -0.8884      2.00000
     14      -0.8250      2.00000
     15      -0.6593      2.00000
     16      -0.2888      2.00000
     17       0.1410      2.00000
     18       0.2326      2.00000
     19       3.0601      0.00000
     20       3.2362      0.00000
     21       3.5495      0.00000
     22       3.6419      0.00000
     23       3.9392      0.00000
     24       4.4705      0.00000
     25       4.7115      0.00000
     26       5.2491      0.00000
     27       7.4871      0.00000
     28       7.8874      0.00000
     29       8.6165      0.00000
     30       9.2411      0.00000
     31       9.6663      0.00000
     32      10.0995      0.00000
     33      10.2926      0.00000
     34      10.4262      0.00000
     35      10.7230      0.00000
     36      11.6670      0.00000
     37      12.1643      0.00000
     38      12.6382      0.00000
     39      13.0462      0.00000
     40      13.3145      0.00000
     41      13.6650      0.00000
     42      13.9265      0.00000
     43      13.9986      0.00000
     44      14.4764      0.00000
     45      14.5491      0.00000
     46      15.0886      0.00000
     47      15.1355      0.00000
     48      15.2769      0.00000

 k-point    16 :       0.2414    0.0000    0.0000
  band No.  band energies     occupation 
      1     -12.8067      2.00000
      2     -12.4113      2.00000
      3     -11.7452      2.00000
      4     -11.5408      2.00000
      5      -4.5252      2.00000
      6      -4.0018      2.00000
      7      -3.3524      2.00000
      8      -2.8991      2.00000
      9      -2.7172      2.00000
     10      -2.4362      2.00000
     11      -1.5481      2.00000
     12      -1.5059      2.00000
     13      -0.9776      2.00000
     14      -0.9182      2.00000
     15      -0.6010      2.00000
     16      -0.2151      2.00000
     17       0.2378      2.00000
     18       0.3290      2.00000
     19       3.0552      0.00000
     20       3.2831      0.00000
     21       3.5181      0.00000
     22       3.6641      0.00000
     23       3.8583      0.00000
     24       4.3669      0.00000
     25       4.6367      0.00000
     26       5.1548      0.00000
     27       7.3468      0.00000
     28       7.7845      0.00000
     29       8.6526      0.00000
     30       9.2934      0.00000
     31       9.7215      0.00000
     32      10.1913      0.00000
     33      10.3683      0.00000
     34      10.5045      0.00000
     35      10.6866      0.00000
     36      11.5914      0.00000
     37      12.0948      0.00000
     38      12.6035      0.00000
     39      13.0109      0.00000
     40      13.2647      0.00000
     41      13.6656      0.00000
     42      13.8560      0.00000
     43      13.9610      0.00000
     44      14.3166      0.00000
     45      14.4111      0.00000
     46      14.9522      0.00000
     47      15.1767      0.00000
     48      15.2867      0.00000

 k-point    17 :       0.2241    0.0000    0.0000
  band No.  band energies     occupation 
      1     -12.9109      2.00000
      2     -12.5028      2.00000
      3     -11.7894      2.00000
      4     -11.5806      2.00000
      5      -4.5881      2.00000
      6      -4.0164      2.00000
      7      -3.2346      2.00000
      8      -2.8086      2.00000
      9      -2.6081      2.00000
     10      -2.2922      2.00000
     11      -1.4560      2.00000
     12      -1.4168      2.00000
     13      -1.0668      2.00000
     14      -1.0103      2.00000
     15      -0.5448      2.00000
     16      -0.1450      2.00000
     17       0.3356      2.00000
     18       0.4388      2.00000
     19       3.0664      0.00000
     20       3.3348      0.00000
     21       3.4940      0.00000
     22       3.6937      0.00000
     23       3.7884      0.00000
     24       4.2682      0.00000
     25       4.5570      0.00000
     26       5.0547      0.00000
     27       7.2111      0.00000
     28       7.6758      0.00000
     29       8.6405      0.00000
     30       9.2964      0.00000
     31       9.7503      0.00000
     32      10.1916      0.00000
     33      10.3638      0.00000
     34      10.6632      0.00000
     35      10.7632      0.00000
     36      11.5258      0.00000
     37      12.0110      0.00000
     38      12.5775      0.00000
     39      12.9542      0.00000
     40      13.1924      0.00000
     41      13.5505      0.00000
     42      13.7658      0.00000
     43      13.9353      0.00000
     44      14.1653      0.00000
     45      14.3539      0.00000
     46      14.7990      0.00000
     47      15.1865      0.00000
     48      15.3976      0.00000

 k-point    18 :       0.2069    0.0000    0.0000
  band No.  band energies     occupation 
      1     -13.0107      2.00000
      2     -12.5907      2.00000
      3     -11.8320      2.00000
      4     -11.6191      2.00000
      5      -4.6653      2.00000
      6      -4.0544      2.00000
      7      -3.0976      2.00000
      8      -2.7089      2.00000
      9      -2.4922      2.00000
     10      -2.1451      2.00000
     11      -1.3628      2.00000
     12      -1.3254      2.00000
     13      -1.1543      2.00000
     14      -1.1002      2.00000
     15      -0.4929      2.00000
     16      -0.0811      2.00000
     17       0.4282      2.00000
     18       0.5592      2.00000
     19       3.0952      0.00000
     20       3.3906      0.00000
     21       3.4770      0.00000
     22       3.7286      0.00000
     23       3.7347      0.00000
     24       4.1772      0.00000
     25       4.4732      0.00000
     26       4.9497      0.00000
     27       7.0816      0.00000
     28       7.5660      0.00000
     29       8.5727      0.00000
     30       9.2337      0.00000
     31       9.7150      0.00000
     32      10.1762      0.00000
     33      10.3869      0.00000
     34      10.8245      0.00000
     35      10.9035      0.00000
     36      11.4790      0.00000
     37      11.9289      0.00000
     38      12.5090      0.00000
     39      12.8606      0.00000
     40      13.1524      0.00000
     41      13.3664      0.00000
     42      13.6263      0.00000
     43      13.9499      0.00000
     44      14.0501      0.00000
     45      14.3496      0.00000
     46      14.6856      0.00000
     47      15.2371      0.00000
     48      15.5008      0.00000

 k-point    19 :       0.1897    0.0000    0.0000
  band No.  band energies     occupation 
      1     -13.1053      2.00000
      2     -12.6742      2.00000
      3     -11.8726      2.00000
      4     -11.6557      2.00000
      5      -4.7498      2.00000
      6      -4.1078      2.00000
      7      -2.9490      2.00000
      8      -2.6004      2.00000
      9      -2.3737      2.00000
     10      -1.9966      2.00000
     11      -1.2780      2.00000
     12      -1.2336      2.00000
     13      -1.2305      2.00000
     14      -1.1856      2.00000
     15      -0.4477      2.00000
     16      -0.0262      2.00000
     17       0.5121      2.00000
     18       0.6853      2.00000
     19       3.1419      0.00000
     20       3.4493      0.00000
     21       3.4668      0.00000
     22       3.6975      0.00000
     23       3.7712      0.00000
     24       4.0965      0.00000
     25       4.3863      0.00000
     26       4.8410      0.00000
     27       6.9592      0.00000
     28       7.4574      0.00000
     29       8.4487      0.00000
     30       9.1049      0.00000
     31       9.6182      0.00000
     32      10.1953      0.00000
     33      10.4655      0.00000
     34      10.9568      0.00000
     35      11.0531      0.00000
     36      11.4490      0.00000
     37      11.8496      0.00000
     38      12.3997      0.00000
     39      12.7476      0.00000
     40      13.1567      0.00000
     41      13.1758      0.00000
     42      13.4373      0.00000
     43      13.9562      0.00000
     44      14.0243      0.00000
     45      14.3668      0.00000
     46      14.5878      0.00000
     47      15.3386      0.00000
     48      15.5757      0.00000

 k-point    20 :       0.1724    0.0000    0.0000
  band No.  band energies     occupation 
      1     -13.1940      2.00000
      2     -12.7525      2.00000
      3     -11.9108      2.00000
      4     -11.6902      2.00000
      5      -4.8367      2.00000
      6      -4.1701      2.00000
      7      -2.7949      2.00000
      8      -2.4860      2.00000
      9      -2.2549      2.00000
     10      -1.8477      2.00000
     11      -1.3276      2.00000
     12      -1.2714      2.00000
     13      -1.1674      2.00000
     14      -1.1385      2.00000
     15      -0.4117      2.00000
     16       0.0170      2.00000
     17       0.5854      2.00000
     18       0.8119      2.00000
     19       3.2058      0.00000
     20       3.4630      0.00000
     21       3.5098      0.00000
     22       3.6835      0.00000
     23       3.8162      0.00000
     24       4.0286      0.00000
     25       4.2977      0.00000
     26       4.7304      0.00000
     27       6.8444      0.00000
     28       7.3515      0.00000
     29       8.2758      0.00000
     30       8.9284      0.00000
     31       9.4951      0.00000
     32      10.2561      0.00000
     33      10.5715      0.00000
     34      11.0164      0.00000
     35      11.1772      0.00000
     36      11.4445      0.00000
     37      11.7696      0.00000
     38      12.3024      0.00000
     39      12.6663      0.00000
     40      12.9413      0.00000
     41      13.2274      0.00000
     42      13.2423      0.00000
     43      13.9041      0.00000
     44      14.0884      0.00000
     45      14.3979      0.00000
     46      14.5051      0.00000
     47      15.5307      0.00000
     48      15.6883      0.00000

 k-point    21 :       0.1552    0.0000    0.0000
  band No.  band energies     occupation 
      1     -13.2761      2.00000
      2     -12.8251      2.00000
      3     -11.9463      2.00000
      4     -11.7222      2.00000
      5      -4.9222      2.00000
      6      -4.2360      2.00000
      7      -2.6398      2.00000
      8      -2.3691      2.00000
      9      -2.1372      2.00000
     10      -1.6993      2.00000
     11      -1.4043      2.00000
     12      -1.3479      2.00000
     13      -1.0771      2.00000
     14      -1.0454      2.00000
     15      -0.3867      2.00000
     16       0.0458      2.00000
     17       0.6472      2.00000
     18       0.9344      2.00000
     19       3.2847      0.00000
     20       3.4665      0.00000
     21       3.5709      0.00000
     22       3.6920      0.00000
     23       3.8633      0.00000
     24       3.9756      0.00000
     25       4.2091      0.00000
     26       4.6195      0.00000
     27       6.7377      0.00000
     28       7.2488      0.00000
     29       8.0690      0.00000
     30       8.7243      0.00000
     31       9.3742      0.00000
     32      10.3435      0.00000
     33      10.6763      0.00000
     34      10.9808      0.00000
     35      11.2194      0.00000
     36      11.4767      0.00000
     37      11.6970      0.00000
     38      12.2789      0.00000
     39      12.6609      0.00000
     40      12.7302      0.00000
     41      13.0167      0.00000
     42      13.3261      0.00000
     43      13.8616      0.00000
     44      14.1307      0.00000
     45      14.4305      0.00000
     46      14.4512      0.00000
     47      15.7382      0.00000
     48      15.7808      0.00000

 k-point    22 :       0.1379    0.0000    0.0000
  band No.  band energies     occupation 
      1     -13.3511      2.00000
      2     -12.8914      2.00000
      3     -11.9788      2.00000
      4     -11.7516      2.00000
      5      -5.0037      2.00000
      6      -4.3019      2.00000
      7      -2.4874      2.00000
      8      -2.2531      2.00000
      9      -2.0216      2.00000
     10      -1.5519      2.00000
[...]
     37      11.3721      0.00000
     38      12.0000      0.00000
     39      12.1998      0.00000
     40      12.2850      0.00000
     41      12.8371      0.00000
     42      13.2396      0.00000
     43      14.3679      0.00000
     44      14.7216      0.00000
     45      15.2381      0.00000
     46      15.3667      0.00000
     47      16.0327      0.00000
     48      17.1012      0.00000

 k-point    85 :       0.4713    0.0575    0.0000
  band No.  band energies     occupation 
      1     -11.5606      2.00000
      2     -11.3436      2.00000
      3     -11.2449      2.00000
      4     -11.0916      2.00000
      5      -5.3228      2.00000
      6      -4.7796      2.00000
      7      -4.1015      2.00000
      8      -3.9198      2.00000
      9      -3.3763      2.00000
     10      -3.0371      2.00000
     11      -2.3194      2.00000
     12      -2.2479      2.00000
     13      -1.0539      2.00000
     14      -0.8877      2.00000
     15      -0.5196      2.00000
     16      -0.3191      2.00000
     17       0.3260      2.00000
     18       0.4244      2.00000
     19       3.1201      0.00000
     20       3.6337      0.00000
     21       3.8818      0.00000
     22       4.3869      0.00000
     23       4.8184      0.00000
     24       5.0312      0.00000
     25       5.4125      0.00000
     26       5.6763      0.00000
     27       6.3528      0.00000
     28       7.2046      0.00000
     29       8.8397      0.00000
     30       9.1085      0.00000
     31       9.4114      0.00000
     32       9.7311      0.00000
     33      10.1319      0.00000
     34      10.5175      0.00000
     35      10.7054      0.00000
     36      11.2937      0.00000
     37      11.4508      0.00000
     38      12.1003      0.00000
     39      12.1914      0.00000
     40      12.2487      0.00000
     41      12.8392      0.00000
     42      13.2104      0.00000
     43      14.3230      0.00000
     44      14.7035      0.00000
     45      15.2429      0.00000
     46      15.4564      0.00000
     47      16.0683      0.00000
     48      17.1529      0.00000

 k-point    86 :       0.4770    0.0460    0.0000
  band No.  band energies     occupation 
      1     -11.5671      2.00000
      2     -11.3490      2.00000
      3     -11.2487      2.00000
      4     -11.0953      2.00000
      5      -5.3408      2.00000
      6      -4.7966      2.00000
      7      -4.0926      2.00000
      8      -3.9061      2.00000
      9      -3.3796      2.00000
     10      -3.0399      2.00000
     11      -2.3157      2.00000
     12      -2.2455      2.00000
     13      -1.0530      2.00000
     14      -0.8936      2.00000
     15      -0.4220      2.00000
     16      -0.2327      2.00000
     17       0.2881      2.00000
     18       0.3904      2.00000
     19       3.1159      0.00000
     20       3.6274      0.00000
     21       3.8893      0.00000
     22       4.3807      0.00000
     23       4.7992      0.00000
     24       5.0774      0.00000
     25       5.3810      0.00000
     26       5.7297      0.00000
     27       6.3148      0.00000
     28       7.1794      0.00000
     29       8.7461      0.00000
     30       9.0407      0.00000
     31       9.3558      0.00000
     32       9.7008      0.00000
     33      10.1114      0.00000
     34      10.5018      0.00000
     35      10.6942      0.00000
     36      11.2791      0.00000
     37      11.5375      0.00000
     38      12.1222      0.00000
     39      12.1814      0.00000
     40      12.2853      0.00000
     41      12.8410      0.00000
     42      13.1789      0.00000
     43      14.2829      0.00000
     44      14.6853      0.00000
     45      15.2450      0.00000
     46      15.5299      0.00000
     47      16.1029      0.00000
     48      17.2293      0.00000

 k-point    87 :       0.4828    0.0345    0.0000
  band No.  band energies     occupation 
      1     -11.5723      2.00000
      2     -11.3532      2.00000
      3     -11.2518      2.00000
      4     -11.0982      2.00000
      5      -5.3549      2.00000
      6      -4.8099      2.00000
      7      -4.0858      2.00000
      8      -3.8953      2.00000
      9      -3.3820      2.00000
     10      -3.0421      2.00000
     11      -2.3137      2.00000
     12      -2.2419      2.00000
     13      -1.0525      2.00000
     14      -0.8988      2.00000
     15      -0.3347      2.00000
     16      -0.1565      2.00000
     17       0.2485      2.00000
     18       0.3560      2.00000
     19       3.1115      0.00000
     20       3.6234      0.00000
     21       3.8944      0.00000
     22       4.3762      0.00000
     23       4.7820      0.00000
     24       5.1176      0.00000
     25       5.3555      0.00000
     26       5.7748      0.00000
     27       6.2843      0.00000
     28       7.1590      0.00000
     29       8.6702      0.00000
     30       8.9859      0.00000
     31       9.3102      0.00000
     32       9.6774      0.00000
     33      10.0954      0.00000
     34      10.4897      0.00000
     35      10.6835      0.00000
     36      11.2673      0.00000
     37      11.6244      0.00000
     38      12.0956      0.00000
     39      12.1552      0.00000
     40      12.3749      0.00000
     41      12.8423      0.00000
     42      13.1465      0.00000
     43      14.2492      0.00000
     44      14.6688      0.00000
     45      15.2453      0.00000
     46      15.5861      0.00000
     47      16.1368      0.00000
     48      17.2955      0.00000

 k-point    88 :       0.4885    0.0230    0.0000
  band No.  band energies     occupation 
      1     -11.5760      2.00000
      2     -11.3563      2.00000
      3     -11.2539      2.00000
      4     -11.1003      2.00000
      5      -5.3650      2.00000
      6      -4.8195      2.00000
      7      -4.0811      2.00000
      8      -3.8875      2.00000
      9      -3.3838      2.00000
     10      -3.0436      2.00000
     11      -2.3127      2.00000
     12      -2.2384      2.00000
     13      -1.0523      2.00000
     14      -0.9029      2.00000
     15      -0.2618      2.00000
     16      -0.0936      2.00000
     17       0.2102      2.00000
     18       0.3237      2.00000
     19       3.1078      0.00000
     20       3.6209      0.00000
     21       3.8976      0.00000
     22       4.3733      0.00000
     23       4.7688      0.00000
     24       5.1485      0.00000
     25       5.3369      0.00000
     26       5.8090      0.00000
     27       6.2619      0.00000
     28       7.1440      0.00000
     29       8.6143      0.00000
     30       8.9455      0.00000
     31       9.2766      0.00000
     32       9.6607      0.00000
     33      10.0840      0.00000
     34      10.4811      0.00000
     35      10.6750      0.00000
     36      11.2589      0.00000
     37      11.7058      0.00000
     38      12.0512      0.00000
     39      12.1400      0.00000
     40      12.4547      0.00000
     41      12.8429      0.00000
     42      13.1160      0.00000
     43      14.2235      0.00000
     44      14.6556      0.00000
     45      15.2447      0.00000
     46      15.6248      0.00000
     47      16.1635      0.00000
     48      17.3110      0.00000

 k-point    89 :       0.4943    0.0115    0.0000
  band No.  band energies     occupation 
      1     -11.5782      2.00000
      2     -11.3581      2.00000
      3     -11.2552      2.00000
      4     -11.1016      2.00000
      5      -5.3710      2.00000
      6      -4.8252      2.00000
      7      -4.0783      2.00000
      8      -3.8828      2.00000
      9      -3.3848      2.00000
     10      -3.0445      2.00000
     11      -2.3123      2.00000
     12      -2.2359      2.00000
     13      -1.0523      2.00000
     14      -0.9055      2.00000
     15      -0.2105      2.00000
     16      -0.0499      2.00000
     17       0.1799      2.00000
     18       0.2988      2.00000
     19       3.1053      0.00000
     20       3.6196      0.00000
     21       3.8993      0.00000
     22       4.3716      0.00000
     23       4.7606      0.00000
     24       5.1679      0.00000
     25       5.3254      0.00000
     26       5.8305      0.00000
     27       6.2483      0.00000
     28       7.1347      0.00000
     29       8.5800      0.00000
     30       8.9208      0.00000
     31       9.2560      0.00000
     32       9.6507      0.00000
     33      10.0772      0.00000
     34      10.4759      0.00000
     35      10.6696      0.00000
     36      11.2538      0.00000
     37      11.7732      0.00000
     38      12.0048      0.00000
     39      12.1325      0.00000
     40      12.5095      0.00000
     41      12.8429      0.00000
     42      13.0930      0.00000
     43      14.2074      0.00000
     44      14.6471      0.00000
     45      15.2439      0.00000
     46      15.6473      0.00000
     47      16.1809      0.00000
     48      17.2372      0.00000

 k-point    90 :       0.5000    0.0000    0.0000
  band No.  band energies     occupation 
      1     -11.5790      2.00000
      2     -11.3587      2.00000
      3     -11.2557      2.00000
      4     -11.1020      2.00000
      5      -5.3730      2.00000
      6      -4.8271      2.00000
      7      -4.0774      2.00000
      8      -3.8812      2.00000
      9      -3.3851      2.00000
     10      -3.0448      2.00000
     11      -2.3122      2.00000
     12      -2.2350      2.00000
     13      -1.0523      2.00000
     14      -0.9064      2.00000
     15      -0.1913      2.00000
     16      -0.0338      2.00000
     17       0.1677      2.00000
     18       0.2890      2.00000
     19       3.1044      0.00000
     20       3.6192      0.00000
     21       3.8999      0.00000
     22       4.3710      0.00000
     23       4.7579      0.00000
     24       5.1745      0.00000
     25       5.3215      0.00000
     26       5.8378      0.00000
     27       6.2437      0.00000
     28       7.1316      0.00000
     29       8.5685      0.00000
     30       8.9125      0.00000
     31       9.2490      0.00000
     32       9.6473      0.00000
     33      10.0750      0.00000
     34      10.4742      0.00000
     35      10.6677      0.00000
     36      11.2521      0.00000
     37      11.8040      0.00000
     38      11.9810      0.00000
     39      12.1301      0.00000
     40      12.5293      0.00000
     41      12.8428      0.00000
     42      13.0842      0.00000
     43      14.2019      0.00000
     44      14.6441      0.00000
     45      15.2436      0.00000
     46      15.6547      0.00000
     47      16.1875      0.00000
     48      17.2673      0.00000


--------------------------------------------------------------------------------------------------------


 soft charge-density along one line, spin component           1
         0         1         2         3         4         5         6         7         8         9
 total charge-density along one line
 
 pseudopotential strength for first ion, spin component:           1
 40.743   0.009  -0.000  -0.045   0.000   0.000  -0.000  -0.000
  0.009   0.009   0.000   0.000  -0.000  -0.000  -0.000   0.000
 -0.000   0.000   8.454   0.000   0.000   0.000  -0.000  -0.000
 -0.045   0.000   0.000   8.452  -0.000  -0.000   0.000   0.000
  0.000  -0.000   0.000  -0.000   8.454  -0.000   0.000   0.000
  0.000  -0.000   0.000  -0.000  -0.000   0.027   0.000   0.000
 -0.000  -0.000  -0.000   0.000   0.000   0.000   0.027  -0.000
 -0.000   0.000  -0.000   0.000   0.000   0.000  -0.000   0.027
 total augmentation occupancy for first ion, spin component:           1
  2.000   0.000   0.000   0.000   0.000   0.000   0.000   0.000
  0.000   0.000   0.000   0.000   0.000   0.000   0.000   0.000
  0.000   0.000   1.333   0.000   0.000   0.000   0.000   0.000
  0.000   0.000   0.000   1.333   0.000   0.000   0.000   0.000
  0.000   0.000   0.000   0.000   1.333   0.000   0.000   0.000
  0.000   0.000   0.000   0.000   0.000   0.000   0.000   0.000
  0.000   0.000   0.000   0.000   0.000   0.000   0.000   0.000
  0.000   0.000   0.000   0.000   0.000   0.000   0.000   0.000


------------------------ aborting loop because EDIFF is reached ----------------------------------------


 


 total charge     
 
# of ion       s       p       d       tot
------------------------------------------
    1        1.350   2.335   0.000   3.685
    2        1.353   2.340   0.000   3.692
    3        1.358   2.306   0.000   3.665
    4        1.356   2.301   0.000   3.657
    5        0.411   0.583   4.522   5.516
    6        0.554   0.686   4.352   5.592
--------------------------------------------------
tot          6.383  10.550   8.874  25.808
 
    CHARGE:  cpu time    0.0237: real time    0.0238
    FORLOC:  cpu time    0.0002: real time    0.0002
    FORNL :  cpu time    0.2745: real time    0.2752
    STRESS:  cpu time    0.5592: real time    0.5608
    FORCOR:  cpu time    0.0019: real time    0.0019
    FORHAR:  cpu time    0.0005: real time    0.0005
    OFIELD:  cpu time    0.0000: real time    0.0000

  DFT-D2 method for vdW energy calculation
  -------------------------------------------------------------------

  Parameters of vdW forcefield:
         C6(Jnm^6/mol)     R0(A)
   -----------------------------
   S        5.570          1.683
   Mo      24.670          1.639
   W       81.240          1.772

  IVDW =  10
  VDW_RADIUS =    50.000 A
  VDW_S6 =     0.750
  VDW_SR =     1.000
  VDW_D =    20.000
  LVDW_EWALD = F

  Number of pair interactions contributing to vdW energy:   62928
  Edisp (eV):   -1.69218
    FORVDW:  cpu time    0.0105: real time    0.0120

  FORCE on cell =-STRESS in cart. coord.  units (eV):
  Direction    XX          YY          ZZ          XY          YZ          ZX
  --------------------------------------------------------------------------------------
  Alpha Z    68.88242    68.88242    68.88242
  Ewald    3494.87546  3495.09203 -4631.91437     0.21520    -0.10750     0.10514
  Hartree  3862.91208  3863.60080 -3788.76701    -0.34496    -0.01229     0.11730
  E(xc)    -138.97333  -140.15355  -140.74630     2.07957     0.00197     0.01800
  Local   -7959.02938 -7968.38842  7800.63759    13.31393     0.10858    -0.21319
  n-local   252.57665   251.98984   264.93097    -0.68173    -0.00799     0.04750
  augment   -53.75211   -53.30710   -56.30580    -0.57191     0.00219    -0.00570
  Kinetic   472.57386   482.32963   486.92716   -13.59787    -0.04165    -0.25439
  Fock        0.00000     0.00000     0.00000     0.00000     0.00000     0.00000
  vdW        -0.11140    -0.10867    -1.16375     0.00166    -0.00337     0.00371
  -------------------------------------------------------------------------------------
  Total      -0.04574    -0.06302     2.48091     0.41390    -0.06005    -0.18162
  in kB      -0.41666    -0.57414    22.60129     3.77063    -0.54710    -1.65453
  external pressure =        7.20 kB  Pullay stress =        0.00 kB


 VOLUME and BASIS-vectors are now :
 -----------------------------------------------------------------------------
  energy-cutoff  :      400.00
  volume of cell :      175.87
      direct lattice vectors                 reciprocal lattice vectors
     3.186500000  0.000000000  0.000000000     0.313823945  0.181186339  0.000000000
    -1.593250000  2.759589949  0.000000000     0.000000000  0.362372678  0.000000000
     0.000000000  0.000000000 20.000000000     0.000000000  0.000000000  0.050000000

  length of vectors
     3.186500000  3.186500000 20.000000000     0.362372678  0.362372678  0.050000000


 FORCES acting on ions
    electron-ion (+dipol)            ewald-force                    non-local-force                 convergence-correction
 -----------------------------------------------------------------------------------------------
   0.103E+01 0.440E+00 -.791E+03   0.100E-01 -.484E-02 0.793E+03   0.350E-01 -.118E+00 -.390E+01   -.960E+00 -.287E+00 0.162E+01
   0.100E+01 0.500E+00 -.603E+02   0.456E-01 -.395E-01 0.579E+02   -.177E-01 -.143E+00 0.434E+01   -.926E+00 -.281E+00 -.196E+01
   -.162E+01 -.710E+00 0.591E+02   -.489E-01 0.257E-01 -.573E+02   0.465E+00 0.317E+00 -.417E+01   0.959E+00 0.299E+00 0.229E+01
   -.165E+01 -.651E+00 0.792E+03   -.108E-01 -.331E-02 -.794E+03   0.404E+00 0.289E+00 0.375E+01   0.994E+00 0.305E+00 -.198E+01
   0.318E+00 0.151E+00 0.426E+03   0.240E-01 0.112E-01 -.426E+03   0.987E-01 -.333E-01 -.567E-01   -.862E-01 -.486E-01 0.426E-01
   -.414E+00 -.229E+00 -.426E+03   -.199E-01 0.108E-01 0.426E+03   0.243E+00 0.136E+00 0.784E-01   0.121E+00 0.651E-01 -.693E-01
 -----------------------------------------------------------------------------------------------
   -.133E+01 -.499E+00 0.124E-01   0.156E-14 0.775E-14 -.171E-12   0.123E+01 0.448E+00 0.403E-01   0.102E+00 0.526E-01 -.557E-01
 
 
 POSITION                                       TOTAL-FORCE (eV/Angst)
 -----------------------------------------------------------------------------------
      1.54891      0.95449     13.85673         0.118997      0.029993      0.069990
      1.54901      0.95444     10.73024         0.104587      0.035084      0.021938
      3.17801      0.00301      7.68752        -0.245672     -0.066783     -0.000603
      3.17801      0.00275      4.56895        -0.260558     -0.060442     -0.095610
      1.58439      0.92251      6.12889         0.353705      0.080101     -0.020563
      3.14251      0.03445     12.29206        -0.071060     -0.017953      0.024848
 -----------------------------------------------------------------------------------
    total drift:                                0.003390      0.001997     -0.003034


--------------------------------------------------------------------------------------------------------



  FREE ENERGIE OF THE ION-ELECTRON SYSTEM (eV)
  ---------------------------------------------------
  free  energy   TOTEN  =       -46.36039819 eV

  energy  without entropy=      -46.36039819  energy(sigma->0) =      -46.36039819
 


--------------------------------------------------------------------------------------------------------


    POTLOK:  cpu time    0.0033: real time    0.0033


--------------------------------------------------------------------------------------------------------


     LOOP+:  cpu time   10.3514: real time   10.3866
    4ORBIT:  cpu time    0.0000: real time    0.0000
 


 total charge     
 
# of ion       s       p       d       tot
------------------------------------------
    1        1.350   2.335   0.000   3.685
    2        1.353   2.340   0.000   3.692
    3        1.358   2.306   0.000   3.665
    4        1.356   2.301   0.000   3.657
    5        0.411   0.583   4.522   5.516
    6        0.554   0.686   4.352   5.592
--------------------------------------------------
tot          6.383  10.550   8.874  25.808
 

 total amount of memory used by VASP MPI-rank0    61328. kBytes
=======================================================================

   base      :      30000. kBytes
   nonl-proj :      21047. kBytes
   fftplans  :        238. kBytes
   grid      :        352. kBytes
   one-center:         15. kBytes
   wavefun   :       9676. kBytes
 
  
  
 General timing and accounting informations for this job:
 ========================================================
  
                  Total CPU time used (sec):       12.006
                            User time (sec):       11.777
                          System time (sec):        0.229
                         Elapsed time (sec):       12.934
  
                   Maximum memory used (kb):      141476.
                   Average memory used (kb):           0.
  
                          Minor page faults:        20788
                          Major page faults:            0
                 Voluntary context switches:          936
