PROCAR lm decomposed
# of k-points:   90         # of bands:   48         # of ions:    6

 k-point     1 :    0.50000000 0.00000000 0.00000000     weight = 0.01111111

band     1 # energy  -11.57896673 # occ.  2.00000000
 
ion      s     py     pz     px    dxy    dyz    dz2    dxz  x2-y2    tot
    1  0.267  0.000  0.006  0.000  0.000  0.000  0.000  0.000  0.000  0.274
    2  0.346  0.000  0.007  0.000  0.000  0.000  0.000  0.000  0.000  0.354
    3  0.010  0.000  0.000  0.000  0.000  0.000  0.000  0.000  0.000  0.010
    4  0.001  0.000  0.000  0.000  0.000  0.000  0.000  0.000  0.000  0.001
    5  0.000  0.000  0.000  0.000  0.000  0.000  0.000  0.000  0.000  0.002
    6  0.030  0.014  0.000  0.041  0.044  0.000  0.000  0.000  0.015  0.143
tot    0.654  0.014  0.014  0.042  0.044  0.000  0.000  0.001  0.015  0.784
 
band     2 # energy  -11.35873029 # occ.  2.00000000
 
ion      s     py     pz     px    dxy    dyz    dz2    dxz  x2-y2    tot
    1  0.041  0.000  0.001  0.000  0.000  0.000  0.000  0.000  0.000  0.041
    2  0.003  0.000  0.000  0.000  0.000  0.000  0.000  0.000  0.000  0.003
    3  0.337  0.000  0.006  0.000  0.000  0.000  0.000  0.000  0.000  0.343
    4  0.260  0.000  0.005  0.000  0.000  0.000  0.000  0.000  0.000  0.265
    5  0.019  0.011  0.000  0.034  0.035  0.000  0.000  0.000  0.012  0.111
    6  0.001  0.000  0.000  0.001  0.001  0.002  0.000  0.005  0.000  0.009
tot    0.660  0.012  0.012  0.035  0.035  0.002  0.000  0.005  0.012  0.773
 
band     3 # energy  -11.25567132 # occ.  2.00000000
 
ion      s     py     pz     px    dxy    dyz    dz2    dxz  x2-y2    tot
    1  0.328  0.000  0.004  0.000  0.000  0.000  0.000  0.000  0.000  0.332
    2  0.279  0.000  0.003  0.000  0.000  0.000  0.000  0.000  0.000  0.283
    3  0.004  0.000  0.000  0.000  0.000  0.000  0.000  0.000  0.000  0.005
    4  0.040  0.000  0.001  0.000  0.000  0.000  0.000  0.000  0.000  0.041
    5  0.001  0.001  0.000  0.002  0.002  0.000  0.000  0.001  0.001  0.008
    6  0.000  0.000  0.006  0.000  0.000  0.031  0.000  0.092  0.000  0.129
tot    0.653  0.001  0.013  0.003  0.002  0.031  0.000  0.093  0.001  0.798
 
band     4 # energy  -11.10199542 # occ.  2.00000000
 
ion      s     py     pz     px    dxy    dyz    dz2    dxz  x2-y2    tot
    1  0.003  0.000  0.000  0.000  0.000  0.000  0.000  0.000  0.000  0.003
    2  0.010  0.000  0.000  0.000  0.000  0.000  0.000  0.000  0.000  0.010
    3  0.298  0.000  0.002  0.000  0.000  0.000  0.000  0.000  0.000  0.301
    4  0.348  0.000  0.003  0.000  0.000  0.000  0.000  0.000  0.000  0.352
    5  0.000  0.000  0.006  0.000  0.000  0.028  0.000  0.085  0.000  0.119
    6  0.000  0.000  0.000  0.000  0.000  0.001  0.000  0.002  0.000  0.003
tot    0.659  0.000  0.011  0.001  0.000  0.029  0.000  0.087  0.000  0.788
 
band     5 # energy   -5.37304582 # occ.  2.00000000
 
ion      s     py     pz     px    dxy    dyz    dz2    dxz  x2-y2    tot
    1  0.009  0.034  0.006  0.101  0.000  0.000  0.000  0.000  0.000  0.150
    2  0.008  0.037  0.006  0.110  0.000  0.000  0.000  0.000  0.000  0.162
    3  0.000  0.001  0.001  0.003  0.000  0.000  0.000  0.000  0.000  0.005
    4  0.000  0.000  0.000  0.001  0.000  0.000  0.000  0.000  0.000  0.002
    5  0.002  0.000  0.000  0.000  0.001  0.000  0.000  0.000  0.000  0.005
    6  0.165  0.007  0.000  0.022  0.061  0.000  0.018  0.000  0.020  0.294
tot    0.185  0.079  0.013  0.237  0.062  0.000  0.019  0.000  0.021  0.616
 
band     6 # energy   -4.82710685 # occ.  2.00000000
 
ion      s     py     pz     px    dxy    dyz    dz2    dxz  x2-y2    tot
    1  0.000  0.001  0.000  0.004  0.000  0.000  0.000  0.000  0.000  0.006
    2  0.000  0.000  0.000  0.001  0.000  0.000  0.000  0.000  0.000  0.002
    3  0.005  0.039  0.006  0.116  0.000  0.000  0.000  0.000  0.000  0.166
    4  0.006  0.036  0.006  0.109  0.000  0.000  0.000  0.000  0.000  0.157
    5  0.119  0.006  0.000  0.018  0.064  0.000  0.022  0.000  0.021  0.250
    6  0.003  0.000  0.000  0.001  0.001  0.000  0.001  0.000  0.000  0.007
tot    0.134  0.083  0.012  0.249  0.065  0.000  0.023  0.000  0.022  0.588
 
band     7 # energy   -4.07738545 # occ.  2.00000000
 
ion      s     py     pz     px    dxy    dyz    dz2    dxz  x2-y2    tot
    1  0.006  0.033  0.003  0.099  0.000  0.000  0.000  0.000  0.000  0.141
    2  0.011  0.038  0.023  0.113  0.000  0.000  0.000  0.000  0.000  0.186
    3  0.002  0.007  0.016  0.021  0.000  0.000  0.000  0.000  0.000  0.046
    4  0.000  0.003  0.000  0.008  0.000  0.000  0.000  0.000  0.000  0.012
    5  0.000  0.000  0.006  0.001  0.003  0.005  0.002  0.016  0.001  0.036
    6  0.000  0.000  0.060  0.001  0.002  0.029  0.001  0.086  0.001  0.179
tot    0.019  0.081  0.109  0.244  0.005  0.034  0.003  0.102  0.002  0.599
 
band     8 # energy   -3.88117404 # occ.  2.00000000
 
ion      s     py     pz     px    dxy    dyz    dz2    dxz  x2-y2    tot
    1  0.004  0.010  0.009  0.031  0.000  0.000  0.000  0.000  0.000  0.055
    2  0.000  0.004  0.005  0.012  0.000  0.000  0.000  0.000  0.000  0.021
    3  0.009  0.032  0.008  0.097  0.000  0.000  0.000  0.000  0.000  0.146
    4  0.008  0.039  0.008  0.116  0.000  0.000  0.000  0.000  0.000  0.169
    5  0.000  0.000  0.053  0.000  0.000  0.026  0.000  0.078  0.000  0.157
    6  0.000  0.001  0.013  0.002  0.006  0.003  0.004  0.010  0.002  0.041
tot    0.022  0.086  0.095  0.258  0.006  0.029  0.004  0.088  0.002  0.590
 
band     9 # energy   -3.38511890 # occ.  2.00000000
 
ion      s     py     pz     px    dxy    dyz    dz2    dxz  x2-y2    tot
    1  0.017  0.006  0.087  0.018  0.000  0.000  0.000  0.000  0.000  0.128
    2  0.010  0.001  0.080  0.002  0.000  0.000  0.000  0.000  0.000  0.093
    3  0.001  0.001  0.031  0.002  0.000  0.000  0.000  0.000  0.000  0.035
    4  0.009  0.007  0.039  0.021  0.000  0.000  0.000  0.000  0.000  0.077
    5  0.000  0.002  0.005  0.006  0.047  0.002  0.025  0.005  0.016  0.109
    6  0.000  0.006  0.001  0.019  0.110  0.000  0.071  0.001  0.037  0.246
tot    0.038  0.023  0.243  0.069  0.157  0.002  0.096  0.007  0.052  0.687
 
band    10 # energy   -3.04480772 # occ.  2.00000000
 
ion      s     py     pz     px    dxy    dyz    dz2    dxz  x2-y2    tot
    1  0.004  0.000  0.037  0.000  0.000  0.000  0.000  0.000  0.000  0.042
    2  0.009  0.005  0.029  0.014  0.000  0.000  0.000  0.000  0.000  0.057
    3  0.016  0.006  0.082  0.019  0.000  0.000  0.000  0.000  0.000  0.123
    4  0.011  0.002  0.088  0.005  0.000  0.000  0.000  0.000  0.000  0.105
    5  0.000  0.006  0.001  0.018  0.121  0.000  0.086  0.000  0.040  0.272
    6  0.000  0.003  0.002  0.008  0.047  0.000  0.037  0.001  0.016  0.113
tot    0.040  0.021  0.238  0.065  0.168  0.000  0.123  0.001  0.056  0.711
 
band    11 # energy   -2.31219901 # occ.  2.00000000
 
ion      s     py     pz     px    dxy    dyz    dz2    dxz  x2-y2    tot
    1  0.000  0.117  0.000  0.039  0.000  0.000  0.000  0.000  0.000  0.156
    2  0.000  0.123  0.000  0.041  0.000  0.000  0.000  0.000  0.000  0.165
    3  0.000  0.011  0.000  0.004  0.000  0.000  0.000  0.000  0.000  0.014
    4  0.000  0.008  0.000  0.003  0.000  0.000  0.000  0.000  0.000  0.011
    5  0.000  0.000  0.000  0.000  0.000  0.026  0.000  0.009  0.000  0.035
    6  0.000  0.000  0.000  0.000  0.000  0.324  0.000  0.108  0.000  0.431
tot    0.000  0.259  0.000  0.087  0.000  0.350  0.000  0.117  0.000  0.812
 
band    12 # energy   -2.23502045 # occ.  2.00000000
 
ion      s     py     pz     px    dxy    dyz    dz2    dxz  x2-y2    tot
    1  0.000  0.011  0.000  0.004  0.000  0.000  0.000  0.000  0.000  0.014
    2  0.000  0.009  0.000  0.003  0.000  0.000  0.000  0.000  0.000  0.012
    3  0.000  0.114  0.000  0.038  0.000  0.000  0.000  0.000  0.000  0.151
    4  0.000  0.113  0.000  0.038  0.000  0.000  0.000  0.000  0.000  0.150
    5  0.000  0.000  0.000  0.000  0.000  0.334  0.000  0.111  0.000  0.445
    6  0.000  0.000  0.000  0.000  0.000  0.027  0.000  0.009  0.000  0.037
tot    0.000  0.246  0.000  0.082  0.000  0.362  0.000  0.120  0.000  0.810
 
band    13 # energy   -1.05228102 # occ.  2.00000000
 
ion      s     py     pz     px    dxy    dyz    dz2    dxz  x2-y2    tot
    1  0.008  0.004  0.128  0.012  0.000  0.000  0.000  0.000  0.000  0.152
    2  0.010  0.003  0.153  0.009  0.000  0.000  0.000  0.000  0.000  0.175
    3  0.005  0.001  0.071  0.002  0.000  0.000  0.000  0.000  0.000  0.079
    4  0.004  0.002  0.049  0.006  0.000  0.000  0.000  0.000  0.000  0.061
    5  0.000  0.000  0.004  0.001  0.000  0.017  0.000  0.054  0.000  0.077
    6  0.000  0.000  0.014  0.000  0.000  0.031  0.000  0.095  0.000  0.140
tot    0.028  0.010  0.419  0.030  0.000  0.048  0.000  0.149  0.000  0.684
 
band    14 # energy   -0.90641976 # occ.  2.00000000
 
ion      s     py     pz     px    dxy    dyz    dz2    dxz  x2-y2    tot
    1  0.003  0.003  0.075  0.008  0.000  0.000  0.000  0.000  0.000  0.089
    2  0.002  0.004  0.053  0.012  0.000  0.000  0.000  0.000  0.000  0.070
    3  0.005  0.007  0.126  0.022  0.000  0.000  0.000  0.000  0.000  0.160
    4  0.007  0.006  0.143  0.017  0.000  0.000  0.000  0.000  0.000  0.172
    5  0.000  0.000  0.020  0.000  0.000  0.027  0.000  0.081  0.000  0.129
    6  0.000  0.000  0.012  0.001  0.000  0.010  0.000  0.028  0.000  0.052
tot    0.018  0.020  0.428  0.059  0.000  0.037  0.000  0.109  0.000  0.672
 
band    15 # energy   -0.19132956 # occ.  2.00000000
 
ion      s     py     pz     px    dxy    dyz    dz2    dxz  x2-y2    tot
    1  0.000  0.188  0.000  0.063  0.000  0.000  0.000  0.000  0.000  0.250
    2  0.000  0.183  0.000  0.061  0.000  0.000  0.000  0.000  0.000  0.243
    3  0.000  0.020  0.000  0.007  0.000  0.000  0.000  0.000  0.000  0.027
    4  0.000  0.022  0.000  0.007  0.000  0.000  0.000  0.000  0.000  0.029
    5  0.000  0.005  0.000  0.002  0.002  0.000  0.000  0.000  0.006  0.015
    6  0.000  0.057  0.000  0.019  0.013  0.000  0.000  0.000  0.040  0.129
tot    0.000  0.474  0.000  0.158  0.015  0.000  0.000  0.000  0.046  0.694
 
band    16 # energy   -0.03381772 # occ.  2.00000000
 
ion      s     py     pz     px    dxy    dyz    dz2    dxz  x2-y2    tot
    1  0.000  0.021  0.000  0.007  0.000  0.000  0.000  0.000  0.000  0.028
    2  0.000  0.022  0.000  0.007  0.000  0.000  0.000  0.000  0.000  0.029
    3  0.000  0.182  0.000  0.061  0.000  0.000  0.000  0.000  0.000  0.243
    4  0.000  0.183  0.000  0.061  0.000  0.000  0.000  0.000  0.000  0.244
    5  0.000  0.048  0.000  0.016  0.019  0.000  0.000  0.000  0.056  0.139
    6  0.000  0.007  0.000  0.002  0.002  0.000  0.000  0.000  0.005  0.017
tot    0.000  0.465  0.000  0.153  0.022  0.000  0.000  0.000  0.061  0.701
 
band    17 # energy    0.16770845 # occ.  2.00000000
 
ion      s     py     pz     px    dxy    dyz    dz2    dxz  x2-y2    tot
    1  0.005  0.001  0.076  0.003  0.000  0.000  0.000  0.000  0.000  0.084
    2  0.004  0.000  0.063  0.002  0.000  0.000  0.000  0.000  0.000  0.069
    3  0.001  0.000  0.007  0.000  0.000  0.000  0.000  0.000  0.000  0.008
    4  0.001  0.000  0.019  0.001  0.000  0.000  0.000  0.000  0.000  0.021
    5  0.000  0.004  0.000  0.013  0.012  0.000  0.026  0.000  0.005  0.061
    6  0.003  0.028  0.000  0.088  0.093  0.000  0.191  0.000  0.032  0.435
tot    0.013  0.033  0.166  0.106  0.106  0.000  0.216  0.000  0.037  0.678
 
band    18 # energy    0.28899624 # occ.  2.00000000
 
ion      s     py     pz     px    dxy    dyz    dz2    dxz  x2-y2    tot
    1  0.001  0.000  0.007  0.000  0.000  0.000  0.000  0.000  0.000  0.008
    2  0.000  0.001  0.012  0.001  0.000  0.000  0.000  0.000  0.000  0.015
    3  0.003  0.001  0.075  0.002  0.000  0.000  0.000  0.000  0.000  0.080
    4  0.004  0.000  0.073  0.001  0.000  0.000  0.000  0.000  0.000  0.078
    5  0.003  0.023  0.000  0.069  0.086  0.000  0.233  0.000  0.028  0.443
    6  0.002  0.004  0.000  0.011  0.016  0.000  0.038  0.000  0.005  0.076
tot    0.013  0.029  0.167  0.083  0.102  0.000  0.272  0.000  0.033  0.699
 
band    19 # energy    3.10440389 # occ.  0.00000000
 
ion      s     py     pz     px    dxy    dyz    dz2    dxz  x2-y2    tot
    1  0.000  0.000  0.000  0.000  0.000  0.000  0.000  0.000  0.000  0.000
    2  0.000  0.000  0.000  0.000  0.000  0.000  0.000  0.000  0.000  0.000
    3  0.000  0.015  0.000  0.005  0.000  0.000  0.000  0.000  0.000  0.020
    4  0.000  0.014  0.000  0.005  0.000  0.000  0.000  0.000  0.000  0.019
    5  0.000  0.003  0.000  0.001  0.222  0.000  0.000  0.000  0.665  0.891
    6  0.000  0.000  0.000  0.000  0.000  0.000  0.000  0.000  0.000  0.000
tot    0.000  0.032  0.000  0.011  0.222  0.000  0.000  0.000  0.665  0.930
 
band    20 # energy    3.61919807 # occ.  0.00000000
 
ion      s     py     pz     px    dxy    dyz    dz2    dxz  x2-y2    tot
    1  0.000  0.000  0.000  0.000  0.000  0.000  0.000  0.000  0.000  0.001
    2  0.000  0.000  0.001  0.000  0.000  0.000  0.000  0.000  0.000  0.001
    3  0.002  0.008  0.004  0.023  0.000  0.000  0.000  0.000  0.000  0.037
    4  0.002  0.008  0.004  0.025  0.000  0.000  0.000  0.000  0.000  0.038
    5  0.009  0.003  0.000  0.009  0.217  0.000  0.504  0.000  0.072  0.814
    6  0.000  0.000  0.000  0.000  0.001  0.000  0.004  0.000  0.000  0.005
tot    0.014  0.019  0.009  0.057  0.217  0.000  0.508  0.000  0.073  0.896
 
band    21 # energy    3.89987278 # occ.  0.00000000
 
ion      s     py     pz     px    dxy    dyz    dz2    dxz  x2-y2    tot
    1  0.000  0.009  0.000  0.003  0.000  0.000  0.000  0.000  0.000  0.012
    2  0.000  0.009  0.000  0.003  0.000  0.000  0.000  0.000  0.000  0.012
    3  0.000  0.000  0.000  0.000  0.000  0.000  0.000  0.000  0.000  0.000
    4  0.000  0.000  0.000  0.000  0.000  0.000  0.000  0.000  0.000  0.000
    5  0.000  0.000  0.000  0.000  0.000  0.000  0.000  0.000  0.000  0.001
    6  0.000  0.002  0.000  0.001  0.228  0.000  0.000  0.000  0.681  0.912
tot    0.000  0.021  0.000  0.007  0.228  0.000  0.000  0.000  0.682  0.937
 
band    22 # energy    4.37100328 # occ.  0.00000000
 
ion      s     py     pz     px    dxy    dyz    dz2    dxz  x2-y2    tot
    1  0.002  0.008  0.001  0.024  0.000  0.000  0.000  0.000  0.000  0.035
    2  0.002  0.008  0.002  0.024  0.000  0.000  0.000  0.000  0.000  0.035
    3  0.000  0.000  0.001  0.001  0.000  0.000  0.000  0.000  0.000  0.002
    4  0.000  0.000  0.000  0.000  0.000  0.000  0.000  0.000  0.000  0.000
    5  0.001  0.000  0.000  0.000  0.002  0.000  0.002  0.001  0.001  0.007
    6  0.010  0.004  0.000  0.011  0.194  0.000  0.529  0.000  0.065  0.813
tot    0.014  0.020  0.003  0.060  0.196  0.000  0.532  0.001  0.066  0.893
 
band    23 # energy    4.75788298 # occ.  0.00000000
 
ion      s     py     pz     px    dxy    dyz    dz2    dxz  x2-y2    tot
    1  0.004  0.000  0.007  0.001  0.000  0.000  0.000  0.000  0.000  0.013
    2  0.013  0.000  0.004  0.001  0.000  0.000  0.000  0.000  0.000  0.018
    3  0.029  0.002  0.049  0.007  0.000  0.000  0.000  0.000  0.000  0.088
    4  0.021  0.002  0.059  0.006  0.000  0.000  0.000  0.000  0.000  0.088
    5  0.000  0.000  0.000  0.000  0.000  0.087  0.000  0.259  0.000  0.347
    6  0.001  0.000  0.000  0.001  0.001  0.018  0.000  0.054  0.000  0.075
tot    0.067  0.006  0.120  0.018  0.001  0.105  0.001  0.313  0.000  0.630
 
band    24 # energy    5.17448193 # occ.  0.00000000
 
ion      s     py     pz     px    dxy    dyz    dz2    dxz  x2-y2    tot
    1  0.000  0.004  0.000  0.001  0.000  0.000  0.000  0.000  0.000  0.005
    2  0.000  0.002  0.000  0.001  0.000  0.000  0.000  0.000  0.000  0.002
    3  0.000  0.111  0.000  0.037  0.000  0.000  0.000  0.000  0.000  0.148
    4  0.000  0.115  0.000  0.038  0.000  0.000  0.000  0.000  0.000  0.154
    5  0.000  0.000  0.000  0.000  0.000  0.345  0.000  0.116  0.000  0.461
    6  0.000  0.000  0.000  0.000  0.000  0.010  0.000  0.004  0.000  0.014
tot    0.000  0.232  0.000  0.077  0.000  0.355  0.000  0.119  0.000  0.784
 
band    25 # energy    5.32154559 # occ.  0.00000000
 
ion      s     py     pz     px    dxy    dyz    dz2    dxz  x2-y2    tot
    1  0.026  0.002  0.053  0.007  0.000  0.000  0.000  0.000  0.000  0.087
    2  0.020  0.002  0.053  0.006  0.000  0.000  0.000  0.000  0.000  0.081
    3  0.001  0.000  0.023  0.001  0.000  0.000  0.000  0.000  0.000  0.026
    4  0.006  0.001  0.017  0.002  0.000  0.000  0.000  0.000  0.000  0.026
    5  0.001  0.000  0.000  0.001  0.000  0.016  0.000  0.048  0.000  0.067
    6  0.003  0.000  0.001  0.000  0.001  0.069  0.001  0.209  0.000  0.285
tot    0.056  0.006  0.148  0.018  0.002  0.085  0.001  0.256  0.001  0.572
 
band    26 # energy    5.83776685 # occ.  0.00000000
 
ion      s     py     pz     px    dxy    dyz    dz2    dxz  x2-y2    tot
    1  0.000  0.108  0.000  0.036  0.000  0.000  0.000  0.000  0.000  0.143
    2  0.000  0.108  0.000  0.036  0.000  0.000  0.000  0.000  0.000  0.144
    3  0.000  0.005  0.000  0.002  0.000  0.000  0.000  0.000  0.000  0.007
    4  0.000  0.003  0.000  0.001  0.000  0.000  0.000  0.000  0.000  0.004
    5  0.000  0.000  0.000  0.000  0.000  0.011  0.000  0.003  0.000  0.014
    6  0.000  0.000  0.000  0.000  0.000  0.351  0.000  0.115  0.000  0.466
tot    0.000  0.224  0.000  0.075  0.000  0.361  0.000  0.119  0.000  0.780
 
band    27 # energy    6.24371346 # occ.  0.00000000
 
ion      s     py     pz     px    dxy    dyz    dz2    dxz  x2-y2    tot
    1  0.004  0.002  0.000  0.006  0.000  0.000  0.000  0.000  0.000  0.011
    2  0.002  0.003  0.004  0.007  0.000  0.000  0.000  0.000  0.000  0.016
    3  0.002  0.000  0.007  0.000  0.000  0.000  0.000  0.000  0.000  0.010
    4  0.001  0.000  0.001  0.000  0.000  0.000  0.000  0.000  0.000  0.002
    5  0.008  0.000  0.001  0.001  0.001  0.000  0.001  0.001  0.000  0.013
    6  0.324  0.004  0.000  0.012  0.040  0.000  0.007  0.001  0.013  0.402
tot    0.341  0.009  0.014  0.026  0.041  0.000  0.008  0.002  0.014  0.455
 
band    28 # energy    7.13160840 # occ.  0.00000000
 
ion      s     py     pz     px    dxy    dyz    dz2    dxz  x2-y2    tot
    1  0.001  0.000  0.004  0.000  0.000  0.000  0.000  0.000  0.000  0.005
    2  0.004  0.000  0.002  0.001  0.000  0.000  0.000  0.000  0.000  0.008
    3  0.000  0.001  0.005  0.003  0.000  0.000  0.000  0.000  0.000  0.009
    4  0.000  0.001  0.004  0.002  0.000  0.000  0.000  0.000  0.000  0.008
    5  0.236  0.008  0.000  0.025  0.045  0.000  0.001  0.000  0.015  0.330
    6  0.002  0.002  0.002  0.006  0.002  0.000  0.000  0.000  0.001  0.016
tot    0.243  0.013  0.017  0.039  0.046  0.000  0.002  0.000  0.015  0.375
 
band    29 # energy    8.56847868 # occ.  0.00000000
 
ion      s     py     pz     px    dxy    dyz    dz2    dxz  x2-y2    tot
    1  0.002  0.000  0.004  0.000  0.000  0.000  0.000  0.000  0.000  0.006
    2  0.004  0.000  0.002  0.000  0.000  0.000  0.000  0.000  0.000  0.007
    3  0.009  0.000  0.001  0.001  0.000  0.000  0.000  0.000  0.000  0.011
    4  0.000  0.000  0.006  0.000  0.000  0.000  0.000  0.000  0.000  0.006
    5  0.000  0.001  0.048  0.003  0.003  0.003  0.002  0.010  0.001  0.071
    6  0.001  0.000  0.085  0.000  0.000  0.005  0.000  0.015  0.000  0.107
tot    0.016  0.001  0.146  0.004  0.003  0.008  0.002  0.026  0.001  0.208
 
band    30 # energy    8.91249680 # occ.  0.00000000
 
ion      s     py     pz     px    dxy    dyz    dz2    dxz  x2-y2    tot
    1  0.025  0.000  0.005  0.000  0.000  0.000  0.000  0.000  0.000  0.030
    2  0.011  0.000  0.010  0.000  0.000  0.000  0.000  0.000  0.000  0.021
    3  0.006  0.000  0.003  0.000  0.000  0.000  0.000  0.000  0.000  0.010
    4  0.026  0.000  0.001  0.000  0.000  0.000  0.000  0.000  0.000  0.027
    5  0.023  0.003  0.038  0.010  0.006  0.001  0.006  0.003  0.002  0.092
    6  0.011  0.007  0.021  0.021  0.013  0.001  0.004  0.002  0.004  0.083
tot    0.102  0.010  0.077  0.031  0.019  0.002  0.011  0.005  0.006  0.263
 
band    31 # energy    9.24900738 # occ.  0.00000000
 
ion      s     py     pz     px    dxy    dyz    dz2    dxz  x2-y2    tot
    1  0.008  0.000  0.013  0.000  0.000  0.000  0.000  0.000  0.000  0.021
    2  0.021  0.000  0.003  0.000  0.000  0.000  0.000  0.000  0.000  0.024
    3  0.006  0.001  0.005  0.004  0.000  0.000  0.000  0.000  0.000  0.016
    4  0.001  0.000  0.009  0.000  0.000  0.000  0.000  0.000  0.000  0.010
    5  0.016  0.000  0.024  0.000  0.000  0.018  0.001  0.053  0.000  0.113
    6  0.017  0.006  0.036  0.016  0.009  0.003  0.002  0.009  0.003  0.100
tot    0.068  0.007  0.091  0.021  0.009  0.021  0.003  0.062  0.003  0.285
 
band    32 # energy    9.64730347 # occ.  0.00000000
 
ion      s     py     pz     px    dxy    dyz    dz2    dxz  x2-y2    tot
    1  0.005  0.000  0.000  0.000  0.000  0.000  0.000  0.000  0.000  0.006
    2  0.006  0.003  0.032  0.009  0.000  0.000  0.000  0.000  0.000  0.050
    3  0.026  0.002  0.032  0.005  0.000  0.000  0.000  0.000  0.000  0.064
    4  0.018  0.000  0.001  0.001  0.000  0.000  0.000  0.000  0.000  0.020
    5  0.020  0.010  0.006  0.027  0.020  0.005  0.011  0.016  0.006  0.120
    6  0.000  0.006  0.005  0.018  0.006  0.015  0.001  0.044  0.002  0.097
tot    0.075  0.021  0.075  0.060  0.025  0.020  0.012  0.060  0.008  0.356
 
band    33 # energy   10.07498201 # occ.  0.00000000
 
ion      s     py     pz     px    dxy    dyz    dz2    dxz  x2-y2    tot
    1  0.012  0.001  0.003  0.003  0.000  0.000  0.000  0.000  0.000  0.020
    2  0.000  0.001  0.006  0.003  0.000  0.000  0.000  0.000  0.000  0.010
    3  0.000  0.001  0.003  0.002  0.000  0.000  0.000  0.000  0.000  0.005
    4  0.009  0.003  0.002  0.008  0.000  0.000  0.000  0.000  0.000  0.022
    5  0.000  0.001  0.015  0.005  0.006  0.010  0.003  0.031  0.002  0.073
    6  0.002  0.002  0.003  0.005  0.007  0.010  0.003  0.032  0.002  0.065
tot    0.023  0.008  0.033  0.025  0.013  0.021  0.005  0.062  0.004  0.194
 
band    34 # energy   10.47418219 # occ.  0.00000000
 
ion      s     py     pz     px    dxy    dyz    dz2    dxz  x2-y2    tot
    1  0.000  0.006  0.005  0.016  0.000  0.000  0.000  0.000  0.000  0.027
    2  0.004  0.000  0.007  0.000  0.000  0.000  0.000  0.000  0.000  0.011
    3  0.001  0.000  0.000  0.000  0.000  0.000  0.000  0.000  0.000  0.001
    4  0.000  0.003  0.002  0.007  0.000  0.000  0.000  0.000  0.000  0.012
    5  0.005  0.001  0.005  0.004  0.003  0.004  0.004  0.012  0.001  0.039
    6  0.007  0.000  0.006  0.001  0.005  0.016  0.004  0.049  0.002  0.090
tot    0.017  0.010  0.025  0.030  0.007  0.020  0.008  0.061  0.002  0.180
 
band    35 # energy   10.66770023 # occ.  0.00000000
 
ion      s     py     pz     px    dxy    dyz    dz2    dxz  x2-y2    tot
    1  0.002  0.001  0.001  0.003  0.000  0.000  0.000  0.000  0.000  0.006
    2  0.000  0.002  0.000  0.005  0.000  0.000  0.000  0.000  0.000  0.007
    3  0.000  0.001  0.000  0.004  0.000  0.000  0.000  0.000  0.000  0.005
    4  0.001  0.001  0.000  0.002  0.000  0.000  0.000  0.000  0.000  0.004
    5  0.002  0.002  0.003  0.006  0.020  0.000  0.022  0.000  0.007  0.062
    6  0.002  0.002  0.004  0.004  0.014  0.000  0.016  0.000  0.005  0.046
tot    0.007  0.009  0.008  0.024  0.034  0.000  0.038  0.000  0.012  0.131
 
band    36 # energy   11.25205057 # occ.  0.00000000
 
ion      s     py     pz     px    dxy    dyz    dz2    dxz  x2-y2    tot
    1  0.000  0.000  0.016  0.000  0.000  0.000  0.000  0.000  0.000  0.017
    2  0.002  0.000  0.001  0.001  0.000  0.000  0.000  0.000  0.000  0.005
    3  0.003  0.000  0.002  0.000  0.000  0.000  0.000  0.000  0.000  0.005
    4  0.000  0.000  0.018  0.001  0.000  0.000  0.000  0.000  0.000  0.019
    5  0.000  0.001  0.000  0.001  0.006  0.001  0.003  0.002  0.002  0.015
    6  0.000  0.000  0.000  0.000  0.009  0.002  0.005  0.006  0.003  0.026
tot    0.006  0.001  0.038  0.003  0.014  0.003  0.008  0.008  0.005  0.087
 
band    37 # energy   11.80395502 # occ.  0.00000000
 
ion      s     py     pz     px    dxy    dyz    dz2    dxz  x2-y2    tot
    1  0.000  0.009  0.000  0.003  0.000  0.000  0.000  0.000  0.000  0.012
    2  0.000  0.004  0.000  0.001  0.000  0.000  0.000  0.000  0.000  0.005
    3  0.000  0.000  0.000  0.000  0.000  0.000  0.000  0.000  0.000  0.000
    4  0.000  0.003  0.000  0.001  0.000  0.000  0.000  0.000  0.000  0.004
    5  0.000  0.043  0.000  0.015  0.000  0.001  0.000  0.000  0.001  0.060
    6  0.000  0.136  0.000  0.047  0.001  0.001  0.000  0.000  0.002  0.187
tot    0.000  0.194  0.000  0.068  0.001  0.001  0.000  0.000  0.003  0.269
 
band    38 # energy   11.98095940 # occ.  0.00000000
 
ion      s     py     pz     px    dxy    dyz    dz2    dxz  x2-y2    tot
    1  0.001  0.001  0.038  0.003  0.000  0.000  0.000  0.000  0.000  0.043
    2  0.002  0.000  0.009  0.001  0.000  0.000  0.000  0.000  0.000  0.012
    3  0.002  0.000  0.003  0.001  0.000  0.000  0.000  0.000  0.000  0.007
    4  0.001  0.002  0.027  0.005  0.000  0.000  0.000  0.000  0.000  0.035
    5  0.000  0.004  0.002  0.010  0.009  0.002  0.002  0.005  0.003  0.037
    6  0.002  0.006  0.000  0.015  0.006  0.001  0.000  0.003  0.002  0.036
tot    0.008  0.013  0.079  0.035  0.016  0.003  0.002  0.007  0.005  0.168
 
band    39 # energy   12.13013209 # occ.  0.00000000
 
ion      s     py     pz     px    dxy    dyz    dz2    dxz  x2-y2    tot
    1  0.000  0.000  0.001  0.000  0.000  0.000  0.000  0.000  0.000  0.002
    2  0.002  0.001  0.000  0.001  0.000  0.000  0.000  0.000  0.000  0.004
    3  0.001  0.001  0.000  0.002  0.000  0.000  0.000  0.000  0.000  0.004
    4  0.001  0.000  0.001  0.001  0.000  0.000  0.000  0.000  0.000  0.002
    5  0.006  0.000  0.004  0.000  0.010  0.001  0.007  0.004  0.003  0.035
    6  0.003  0.000  0.003  0.000  0.009  0.001  0.008  0.004  0.003  0.032
tot    0.012  0.002  0.009  0.005  0.019  0.003  0.016  0.008  0.006  0.078
 
band    40 # energy   12.52927588 # occ.  0.00000000
 
ion      s     py     pz     px    dxy    dyz    dz2    dxz  x2-y2    tot
    1  0.000  0.002  0.000  0.001  0.000  0.000  0.000  0.000  0.000  0.003
    2  0.000  0.009  0.000  0.003  0.000  0.000  0.000  0.000  0.000  0.011
    3  0.000  0.010  0.000  0.003  0.000  0.000  0.000  0.000  0.000  0.013
    4  0.000  0.006  0.000  0.002  0.000  0.000  0.000  0.000  0.000  0.008
    5  0.000  0.126  0.000  0.044  0.001  0.000  0.000  0.000  0.001  0.173
    6  0.000  0.057  0.000  0.019  0.000  0.001  0.000  0.000  0.000  0.078
tot    0.000  0.210  0.000  0.071  0.001  0.001  0.000  0.000  0.002  0.286
 
band    41 # energy   12.84278184 # occ.  0.00000000
 
ion      s     py     pz     px    dxy    dyz    dz2    dxz  x2-y2    tot
    1  0.000  0.000  0.009  0.001  0.000  0.000  0.000  0.000  0.000  0.011
    2  0.000  0.001  0.025  0.002  0.000  0.000  0.000  0.000  0.000  0.028
    3  0.000  0.000  0.023  0.002  0.000  0.000  0.000  0.000  0.000  0.025
    4  0.000  0.000  0.005  0.000  0.000  0.000  0.000  0.000  0.000  0.006
    5  0.000  0.001  0.014  0.001  0.000  0.007  0.001  0.019  0.000  0.043
    6  0.000  0.000  0.018  0.001  0.000  0.011  0.001  0.032  0.000  0.063
tot    0.001  0.003  0.095  0.007  0.000  0.017  0.001  0.051  0.000  0.176
 
band    42 # energy   13.08419478 # occ.  0.00000000
 
ion      s     py     pz     px    dxy    dyz    dz2    dxz  x2-y2    tot
    1  0.000  0.001  0.007  0.003  0.000  0.000  0.000  0.000  0.000  0.010
    2  0.000  0.001  0.010  0.002  0.000  0.000  0.000  0.000  0.000  0.013
    3  0.000  0.000  0.012  0.000  0.000  0.000  0.000  0.000  0.000  0.013
    4  0.001  0.000  0.009  0.000  0.000  0.000  0.000  0.000  0.000  0.011
    5  0.020  0.004  0.000  0.007  0.010  0.000  0.015  0.000  0.003  0.059
    6  0.022  0.002  0.000  0.005  0.014  0.000  0.027  0.001  0.005  0.075
tot    0.043  0.008  0.039  0.017  0.023  0.000  0.042  0.001  0.008  0.182
 
band    43 # energy   14.20185375 # occ.  0.00000000
 
ion      s     py     pz     px    dxy    dyz    dz2    dxz  x2-y2    tot
    1  0.001  0.000  0.021  0.000  0.000  0.000  0.000  0.000  0.000  0.023
    2  0.002  0.000  0.016  0.000  0.000  0.000  0.000  0.000  0.000  0.018
    3  0.002  0.000  0.008  0.001  0.000  0.000  0.000  0.000  0.000  0.011
    4  0.001  0.001  0.012  0.003  0.000  0.000  0.000  0.000  0.000  0.017
    5  0.000  0.002  0.013  0.005  0.005  0.003  0.000  0.007  0.002  0.036
    6  0.006  0.002  0.011  0.007  0.004  0.002  0.000  0.007  0.001  0.040
tot    0.012  0.006  0.081  0.016  0.009  0.005  0.000  0.014  0.003  0.146
 
band    44 # energy   14.64411188 # occ.  0.00000000
 
ion      s     py     pz     px    dxy    dyz    dz2    dxz  x2-y2    tot
    1  0.001  0.004  0.014  0.012  0.000  0.000  0.000  0.000  0.000  0.030
    2  0.000  0.003  0.002  0.010  0.000  0.000  0.000  0.000  0.000  0.016
    3  0.000  0.002  0.012  0.006  0.000  0.000  0.000  0.000  0.000  0.019
    4  0.000  0.002  0.023  0.006  0.000  0.000  0.000  0.000  0.000  0.032
    5  0.049  0.001  0.001  0.004  0.001  0.001  0.005  0.002  0.000  0.063
    6  0.033  0.000  0.008  0.001  0.001  0.003  0.005  0.009  0.000  0.060
tot    0.083  0.012  0.060  0.039  0.002  0.004  0.010  0.010  0.001  0.220
 
band    45 # energy   15.24363528 # occ.  0.00000000
 
ion      s     py     pz     px    dxy    dyz    dz2    dxz  x2-y2    tot
    1  0.003  0.003  0.000  0.010  0.000  0.000  0.000  0.000  0.000  0.016
    2  0.002  0.007  0.028  0.020  0.000  0.000  0.000  0.000  0.000  0.057
    3  0.003  0.010  0.024  0.029  0.000  0.000  0.000  0.000  0.000  0.064
    4  0.001  0.006  0.000  0.019  0.000  0.000  0.000  0.000  0.000  0.027
    5  0.011  0.002  0.000  0.007  0.041  0.000  0.011  0.000  0.014  0.084
    6  0.006  0.002  0.000  0.005  0.024  0.000  0.007  0.000  0.008  0.053