<?xml version="1.0" encoding="ISO-8859-1"?>
<modeling>
 <generator>
  <i name="program" type="string">vasp </i>
  <i name="version" type="string">5.4.4.18Apr17-6-g9f103f2a35  </i>
  <i name="subversion" type="string">(build Jun 26 2021 01:31:14) complex            parallel </i>
  <i name="platform" type="string">LinuxIFC </i>
  <i name="date" type="string">2021 07 11 </i>
  <i name="time" type="string">12:47:52 </i>
 </generator>
 <incar>
  <i type="string" name="SYSTEM"> VaspCalc</i>
  <i type="int" name="ISTART">     1</i>
  <i type="string" name="PREC">med</i>
  <i type="string" name="ALGO"> Fast</i>
  <i type="int" name="ISPIN">     1</i>
  <i type="int" name="ICHARG">    11</i>
  <i type="int" name="NELM">   400</i>
  <i type="int" name="NELMIN">     4</i>
  <i type="int" name="IBRION">    -1</i>
  <i name="EDIFF">      0.00000100</i>
  <i type="int" name="NSW">     0</i>
  <i name="ENCUT">    400.00000000</i>
  <i type="int" name="NBANDS">    48</i>
  <i type="int" name="ISMEAR">     0</i>
  <i name="SIGMA">      0.10000000</i>
  <i type="int" name="NWRITE">     1</i>
  <i type="logical" name="LWAVE"> F  </i>
  <i type="logical" name="LCHARG"> T  </i>
  <i type="int" name="LORBIT">    11</i>
  <v type="int" name="KPOINT_BSE">    -1     0     0     0</v>
  <i type="int" name="NELM">   400</i>
 </incar>
 <structure name="primitive_cell" >
  <crystal>
   <varray name="basis" >
    <v>       3.18650000       0.00000000       0.00000000 </v>
    <v>      -1.59325000       2.75958995       0.00000000 </v>
    <v>       0.00000000       0.00000000      20.00000000 </v>
   </varray>
   <i name="volume">    175.86866745 </i>
   <varray name="rec_basis" >
    <v>       0.31382394       0.18118634       0.00000000 </v>
    <v>       0.00000000       0.36237268       0.00000000 </v>
    <v>       0.00000000       0.00000000       0.05000000 </v>
   </varray>
  </crystal>
  <varray name="positions" >
   <v>      -0.34097473       0.34587942      -0.30716366 </v>
   <v>      -0.00756185       0.01248506      -0.38539718 </v>
   <v>      -0.34094995       0.34586411      -0.46348819 </v>
   <v>      -0.00211927       0.00109173       0.38437599 </v>
   <v>      -0.33563222       0.33429416       0.30644433 </v>
   <v>      -0.00216680       0.00099507       0.22844737 </v>
  </varray>
 </structure>
 <varray name="primitive_index" >
  <v type="int" >        1 </v>
  <v type="int" >        6 </v>
  <v type="int" >        2 </v>
  <v type="int" >        3 </v>
  <v type="int" >        5 </v>
  <v type="int" >        4 </v>
 </varray>
 <kpoints>
  <generation param="listgenerated">
   <i name="divisions" type="int">      30 </i>
   <v>       0.50000000       0.00000000       0.00000000 </v>
   <v>       0.00000000       0.00000000       0.00000000 </v>
   <v>       0.33330000       0.33330000       0.00000000 </v>
   <v>       0.50000000       0.00000000       0.00000000 </v>
  </generation>
  <varray name="kpointlist" >
   <v>       0.50000000       0.00000000       0.00000000 </v>
   <v>       0.48275862       0.00000000       0.00000000 </v>
   <v>       0.46551724       0.00000000       0.00000000 </v>
   <v>       0.44827586       0.00000000       0.00000000 </v>
   <v>       0.43103448       0.00000000       0.00000000 </v>
   <v>       0.41379310       0.00000000       0.00000000 </v>
   <v>       0.39655172       0.00000000       0.00000000 </v>
   <v>       0.37931034       0.00000000       0.00000000 </v>
   <v>       0.36206897       0.00000000       0.00000000 </v>
   <v>       0.34482759       0.00000000       0.00000000 </v>
   <v>       0.32758621       0.00000000       0.00000000 </v>
   <v>       0.31034483       0.00000000       0.00000000 </v>
   <v>       0.29310345       0.00000000       0.00000000 </v>
   <v>       0.27586207       0.00000000       0.00000000 </v>
   <v>       0.25862069       0.00000000       0.00000000 </v>
   <v>       0.24137931       0.00000000       0.00000000 </v>
   <v>       0.22413793       0.00000000       0.00000000 </v>
   <v>       0.20689655       0.00000000       0.00000000 </v>
   <v>       0.18965517       0.00000000       0.00000000 </v>
   <v>       0.17241379       0.00000000       0.00000000 </v>
   <v>       0.15517241       0.00000000       0.00000000 </v>
   <v>       0.13793103       0.00000000       0.00000000 </v>
   <v>       0.12068966       0.00000000       0.00000000 </v>
   <v>       0.10344828       0.00000000       0.00000000 </v>
   <v>       0.08620690       0.00000000       0.00000000 </v>
   <v>       0.06896552       0.00000000       0.00000000 </v>
   <v>       0.05172414       0.00000000       0.00000000 </v>
   <v>       0.03448276       0.00000000       0.00000000 </v>
   <v>       0.01724138       0.00000000       0.00000000 </v>
   <v>       0.00000000       0.00000000       0.00000000 </v>
   <v>       0.00000000       0.00000000       0.00000000 </v>
   <v>       0.01149310       0.01149310       0.00000000 </v>
   <v>       0.02298621       0.02298621       0.00000000 </v>
   <v>       0.03447931       0.03447931       0.00000000 </v>
   <v>       0.04597241       0.04597241       0.00000000 </v>
   <v>       0.05746552       0.05746552       0.00000000 </v>
   <v>       0.06895862       0.06895862       0.00000000 </v>
   <v>       0.08045172       0.08045172       0.00000000 </v>
   <v>       0.09194483       0.09194483       0.00000000 </v>
   <v>       0.10343793       0.10343793       0.00000000 </v>
   <v>       0.11493103       0.11493103       0.00000000 </v>
   <v>       0.12642414       0.12642414       0.00000000 </v>
   <v>       0.13791724       0.13791724       0.00000000 </v>
   <v>       0.14941034       0.14941034       0.00000000 </v>
   <v>       0.16090345       0.16090345       0.00000000 </v>
   <v>       0.17239655       0.17239655       0.00000000 </v>
   <v>       0.18388966       0.18388966       0.00000000 </v>
   <v>       0.19538276       0.19538276       0.00000000 </v>
   <v>       0.20687586       0.20687586       0.00000000 </v>
   <v>       0.21836897       0.21836897       0.00000000 </v>
   <v>       0.22986207       0.22986207       0.00000000 </v>
   <v>       0.24135517       0.24135517       0.00000000 </v>
   <v>       0.25284828       0.25284828       0.00000000 </v>
   <v>       0.26434138       0.26434138       0.00000000 </v>
   <v>       0.27583448       0.27583448       0.00000000 </v>
   <v>       0.28732759       0.28732759       0.00000000 </v>
   <v>       0.29882069       0.29882069       0.00000000 </v>
   <v>       0.31031379       0.31031379       0.00000000 </v>
   <v>       0.32180690       0.32180690       0.00000000 </v>
   <v>       0.33330000       0.33330000       0.00000000 </v>
   <v>       0.33330000       0.33330000       0.00000000 </v>
   <v>       0.33904828       0.32180690       0.00000000 </v>
   <v>       0.34479655       0.31031379       0.00000000 </v>
   <v>       0.35054483       0.29882069       0.00000000 </v>
   <v>       0.35629310       0.28732759       0.00000000 </v>
   <v>       0.36204138       0.27583448       0.00000000 </v>
   <v>       0.36778966       0.26434138       0.00000000 </v>
   <v>       0.37353793       0.25284828       0.00000000 </v>
   <v>       0.37928621       0.24135517       0.00000000 </v>
   <v>       0.38503448       0.22986207       0.00000000 </v>
   <v>       0.39078276       0.21836897       0.00000000 </v>
   <v>       0.39653103       0.20687586       0.00000000 </v>
   <v>       0.40227931       0.19538276       0.00000000 </v>
   <v>       0.40802759       0.18388966       0.00000000 </v>
   <v>       0.41377586       0.17239655       0.00000000 </v>
   <v>       0.41952414       0.16090345       0.00000000 </v>
   <v>       0.42527241       0.14941034       0.00000000 </v>
   <v>       0.43102069       0.13791724       0.00000000 </v>
   <v>       0.43676897       0.12642414       0.00000000 </v>
   <v>       0.44251724       0.11493103       0.00000000 </v>
   <v>       0.44826552       0.10343793       0.00000000 </v>
   <v>       0.45401379       0.09194483       0.00000000 </v>
   <v>       0.45976207       0.08045172       0.00000000 </v>
   <v>       0.46551034       0.06895862       0.00000000 </v>
   <v>       0.47125862       0.05746552       0.00000000 </v>
   <v>       0.47700690       0.04597241       0.00000000 </v>
   <v>       0.48275517       0.03447931       0.00000000 </v>
   <v>       0.48850345       0.02298621       0.00000000 </v>
   <v>       0.49425172       0.01149310       0.00000000 </v>
   <v>       0.50000000       0.00000000       0.00000000 </v>
  </varray>
  <varray name="weights" >
   <v>       0.01111111 </v>
   <v>       0.01111111 </v>
   <v>       0.01111111 </v>
   <v>       0.01111111 </v>
   <v>       0.01111111 </v>
   <v>       0.01111111 </v>
   <v>       0.01111111 </v>
   <v>       0.01111111 </v>
   <v>       0.01111111 </v>
   <v>       0.01111111 </v>
   <v>       0.01111111 </v>
   <v>       0.01111111 </v>
   <v>       0.01111111 </v>
   <v>       0.01111111 </v>
   <v>       0.01111111 </v>
   <v>       0.01111111 </v>
   <v>       0.01111111 </v>
   <v>       0.01111111 </v>
   <v>       0.01111111 </v>
   <v>       0.01111111 </v>
   <v>       0.01111111 </v>
   <v>       0.01111111 </v>
   <v>       0.01111111 </v>
   <v>       0.01111111 </v>
   <v>       0.01111111 </v>
   <v>       0.01111111 </v>
   <v>       0.01111111 </v>
   <v>       0.01111111 </v>
   <v>       0.01111111 </v>
   <v>       0.01111111 </v>
   <v>       0.01111111 </v>
   <v>       0.01111111 </v>
   <v>       0.01111111 </v>
   <v>       0.01111111 </v>
   <v>       0.01111111 </v>
   <v>       0.01111111 </v>
   <v>       0.01111111 </v>
   <v>       0.01111111 </v>
   <v>       0.01111111 </v>
   <v>       0.01111111 </v>
   <v>       0.01111111 </v>
   <v>       0.01111111 </v>
   <v>       0.01111111 </v>
   <v>       0.01111111 </v>
   <v>       0.01111111 </v>
   <v>       0.01111111 </v>
   <v>       0.01111111 </v>
   <v>       0.01111111 </v>
   <v>       0.01111111 </v>
   <v>       0.01111111 </v>
   <v>       0.01111111 </v>
   <v>       0.01111111 </v>
   <v>       0.01111111 </v>
   <v>       0.01111111 </v>
   <v>       0.01111111 </v>
   <v>       0.01111111 </v>
   <v>       0.01111111 </v>
   <v>       0.01111111 </v>
   <v>       0.01111111 </v>
   <v>       0.01111111 </v>
   <v>       0.01111111 </v>
   <v>       0.01111111 </v>
   <v>       0.01111111 </v>
   <v>       0.01111111 </v>
   <v>       0.01111111 </v>
   <v>       0.01111111 </v>
   <v>       0.01111111 </v>
   <v>       0.01111111 </v>
   <v>       0.01111111 </v>
   <v>       0.01111111 </v>
   <v>       0.01111111 </v>
   <v>       0.01111111 </v>
   <v>       0.01111111 </v>
   <v>       0.01111111 </v>
   <v>       0.01111111 </v>
   <v>       0.01111111 </v>
   <v>       0.01111111 </v>
   <v>       0.01111111 </v>
   <v>       0.01111111 </v>
   <v>       0.01111111 </v>
   <v>       0.01111111 </v>
   <v>       0.01111111 </v>
   <v>       0.01111111 </v>
   <v>       0.01111111 </v>
   <v>       0.01111111 </v>
   <v>       0.01111111 </v>
   <v>       0.01111111 </v>
   <v>       0.01111111 </v>
   <v>       0.01111111 </v>
   <v>       0.01111111 </v>
  </varray>
 </kpoints>
 <parameters>
  <separator name="general" >
   <i type="string" name="SYSTEM">VaspCalc</i>
   <i type="logical" name="LCOMPAT"> F  </i>
  </separator>
  <separator name="electronic" >
   <i type="string" name="PREC">med</i>
   <i name="ENMAX">    400.00000000</i>
   <i name="ENAUG">    373.43800000</i>
   <i name="EDIFF">      0.00000100</i>
   <i type="int" name="IALGO">    68</i>
   <i type="int" name="IWAVPR">    10</i>
   <i type="int" name="NBANDS">    48</i>
   <i name="NELECT">     36.00000000</i>
   <i type="int" name="TURBO">     0</i>
   <i type="int" name="IRESTART">     0</i>
   <i type="int" name="NREBOOT">     0</i>
   <i type="int" name="NMIN">     0</i>
   <i name="EREF">      0.00000000</i>
   <separator name="electronic smearing" >
    <i type="int" name="ISMEAR">     0</i>
    <i name="SIGMA">      0.10000000</i>
    <i name="KSPACING">      0.50000000</i>
    <i type="logical" name="KGAMMA"> T  </i>
   </separator>
   <separator name="electronic projectors" >
    <i type="logical" name="LREAL"> F  </i>
    <v name="ROPT">      0.00000000      0.00000000      0.00000000</v>
    <i type="int" name="LMAXPAW">  -100</i>
    <i type="int" name="LMAXMIX">     2</i>
    <i type="logical" name="NLSPLINE"> F  </i>
   </separator>
   <separator name="electronic startup" >
    <i type="int" name="ISTART">     0</i>
    <i type="int" name="ICHARG">    11</i>
    <i type="int" name="INIWAV">     1</i>
   </separator>
   <separator name="electronic spin" >
    <i type="int" name="ISPIN">     1</i>
    <i type="logical" name="LNONCOLLINEAR"> F  </i>
    <v name="MAGMOM">      1.00000000      1.00000000      1.00000000      1.00000000      1.00000000      1.00000000</v>
    <i name="NUPDOWN">     -1.00000000</i>
    <i type="logical" name="LSORBIT"> F  </i>
    <v name="SAXIS">      0.00000000      0.00000000      1.00000000</v>
    <i type="logical" name="LSPIRAL"> F  </i>
    <v name="QSPIRAL">      0.00000000      0.00000000      0.00000000</v>
    <i type="logical" name="LZEROZ"> F  </i>
   </separator>
   <separator name="electronic exchange-correlation" >
    <i type="logical" name="LASPH"> F  </i>
    <i type="logical" name="LMETAGGA"> F  </i>
   </separator>
   <separator name="electronic convergence" >
    <i type="int" name="NELM">   400</i>
    <i type="int" name="NELMDL">     0</i>
    <i type="int" name="NELMIN">     4</i>
    <i name="ENINI">    400.00000000</i>
    <separator name="electronic convergence detail" >
     <i type="logical" name="LDIAG"> T  </i>
     <i type="logical" name="LSUBROT"> F  </i>
     <i name="WEIMIN">      0.00000000</i>
     <i name="EBREAK">      0.00000001</i>
     <i name="DEPER">      0.30000000</i>
     <i type="int" name="NRMM">     4</i>
     <i name="TIME">      0.40000000</i>
    </separator>
   </separator>
   <separator name="electronic mixer" >
    <i name="AMIX">      0.40000000</i>
    <i name="BMIX">      1.00000000</i>
    <i name="AMIN">      0.10000000</i>
    <i name="AMIX_MAG">      1.60000000</i>
    <i name="BMIX_MAG">      1.00000000</i>
    <separator name="electronic mixer details" >
     <i type="int" name="IMIX">     4</i>
     <i type="logical" name="MIXFIRST"> F  </i>
     <i type="int" name="MAXMIX">   -45</i>
     <i name="WC">    100.00000000</i>
     <i type="int" name="INIMIX">     1</i>
     <i type="int" name="MIXPRE">     1</i>
     <i type="int" name="MREMOVE">     5</i>
    </separator>
   </separator>
   <separator name="electronic dipolcorrection" >
    <i type="logical" name="LDIPOL"> F  </i>
    <i type="logical" name="LMONO"> F  </i>
    <i type="int" name="IDIPOL">     0</i>
    <i name="EPSILON">      1.00000000</i>
    <v name="DIPOL">   -100.00000000   -100.00000000   -100.00000000</v>
    <i name="EFIELD">      0.00000000</i>
   </separator>
  </separator>
  <separator name="grids" >
   <i type="int" name="NGX">    16</i>
   <i type="int" name="NGY">    16</i>
   <i type="int" name="NGZ">    98</i>
   <i type="int" name="NGXF">    20</i>
   <i type="int" name="NGYF">    20</i>
   <i type="int" name="NGZF">   126</i>
   <i type="logical" name="ADDGRID"> F  </i>
  </separator>
  <separator name="ionic" >
   <i type="int" name="NSW">     0</i>
   <i type="int" name="IBRION">    -1</i>
   <i type="int" name="MDALGO">     0</i>
   <i type="int" name="ISIF">     2</i>
   <i name="PSTRESS">      0.00000000</i>
   <i name="EDIFFG">      0.00001000</i>
   <i type="int" name="NFREE">     0</i>
   <i name="POTIM">      0.50000000</i>
   <i name="SMASS">     -3.00000000</i>
   <i name="SCALEE">      1.00000000</i>
  </separator>
  <separator name="ionic md" >
   <i name="TEBEG">      0.00010000</i>
   <i name="TEEND">      0.00010000</i>
   <i type="int" name="NBLOCK">     1</i>
   <i type="int" name="KBLOCK">     1</i>
   <i type="int" name="NPACO">   256</i>
   <i name="APACO">     16.00000000</i>
  </separator>
  <separator name="symmetry" >
   <i type="int" name="ISYM">     2</i>
   <i name="SYMPREC">      0.00001000</i>
  </separator>
  <separator name="dos" >
   <i type="int" name="LORBIT">    11</i>
   <v name="RWIGS">     -1.00000000     -1.00000000     -1.00000000</v>
   <i type="int" name="NEDOS">   301</i>
   <i name="EMIN">     10.00000000</i>
   <i name="EMAX">    -10.00000000</i>
   <i name="EFERMI">      0.00000000</i>
  </separator>
  <separator name="writing" >
   <i type="int" name="NWRITE">     1</i>
   <i type="logical" name="LWAVE"> F  </i>
   <i type="logical" name="LDOWNSAMPLE"> F  </i>
   <i type="logical" name="LCHARG"> T  </i>
   <i type="logical" name="LPARD"> F  </i>
   <i type="logical" name="LVTOT"> F  </i>
   <i type="logical" name="LVHAR"> F  </i>
   <i type="logical" name="LELF"> F  </i>
   <i type="logical" name="LOPTICS"> F  </i>
   <v name="STM">      0.00000000      0.00000000      0.00000000      0.00000000      0.00000000      0.00000000      0.00000000</v>
  </separator>
  <separator name="performance" >
   <i type="int" name="NPAR">     4</i>
   <i type="int" name="NSIM">     4</i>
   <i type="int" name="NBLK">    -1</i>
   <i type="logical" name="LPLANE"> T  </i>
   <i type="logical" name="LSCALAPACK"> T  </i>
   <i type="logical" name="LSCAAWARE"> F  </i>
   <i type="logical" name="LSCALU"> F  </i>
   <i type="logical" name="LASYNC"> F  </i>
   <i type="logical" name="LORBITALREAL"> F  </i>
  </separator>
  <separator name="miscellaneous" >
   <i type="int" name="IDIOT">     3</i>
   <i type="int" name="ISPECIAL">     0</i>
   <i type="logical" name="LMUSIC"> F  </i>
   <v name="POMASS">     32.06600000     95.94000000    183.85000000</v>
   <v name="DARWINR">      0.00000000      0.00000000      0.00000000</v>
   <v name="DARWINV">      1.00000000      1.00000000      1.00000000</v>
   <i type="logical" name="LCORR"> T  </i>
  </separator>
  <i type="logical" name="GGA_COMPAT"> T  </i>
  <i type="logical" name="LBERRY"> F  </i>
  <i type="int" name="ICORELEVEL">     0</i>
  <i type="logical" name="LDAU"> F  </i>
  <i type="int" name="I_CONSTRAINED_M">     0</i>
  <separator name="electronic exchange-correlation" >
   <i type="string" name="GGA">--</i>
   <i type="int" name="VOSKOWN">     0</i>
   <i type="logical" name="LHFCALC"> F  </i>
   <i type="string" name="PRECFOCK"></i>
   <i type="logical" name="LSYMGRAD"> F  </i>
   <i type="logical" name="LHFONE"> F  </i>
   <i type="logical" name="LRHFCALC"> F  </i>
   <i type="logical" name="LTHOMAS"> F  </i>
   <i type="logical" name="LMODELHF"> F  </i>
   <i name="ENCUT4O">     -1.00000000</i>
   <i type="int" name="EXXOEP">     0</i>
   <i type="int" name="FOURORBIT">     0</i>
   <i name="AEXX">      0.00000000</i>
   <i name="HFALPHA">      0.00000000</i>
   <i name="MCALPHA">      0.00000000</i>
   <i name="ALDAX">      1.00000000</i>
   <i name="AGGAX">      1.00000000</i>
   <i name="ALDAC">      1.00000000</i>
   <i name="AGGAC">      1.00000000</i>
   <i type="int" name="NKREDX">     1</i>
   <i type="int" name="NKREDY">     1</i>
   <i type="int" name="NKREDZ">     1</i>
   <i type="logical" name="SHIFTRED"> F  </i>
   <i type="logical" name="ODDONLY"> F  </i>
   <i type="logical" name="EVENONLY"> F  </i>
   <i type="int" name="LMAXFOCK">     0</i>
   <i type="int" name="NMAXFOCKAE">     0</i>
   <i type="logical" name="LFOCKAEDFT"> F  </i>
   <i name="HFSCREEN">      0.00000000</i>
   <i name="HFSCREENC">      0.00000000</i>
   <i type="int" name="NBANDSGWLOW">     0</i>
  </separator>
  <separator name="vdW DFT" >
   <i type="logical" name="LUSE_VDW"> F  </i>
   <i name="Zab_VDW">     -0.84910000</i>
   <i name="PARAM1">      0.12340000</i>
   <i name="PARAM2">      1.00000000</i>
   <i name="PARAM3">      0.00000000</i>
  </separator>
  <separator name="model GW" >
   <i type="int" name="MODEL_GW">     0</i>
   <i name="MODEL_EPS0">     17.58686674</i>
   <i name="MODEL_ALPHA">      1.00000000</i>
  </separator>
  <separator name="linear response parameters" >
   <i type="logical" name="LEPSILON"> F  </i>
   <i type="logical" name="LRPA"> F  </i>
   <i type="logical" name="LNABLA"> F  </i>
   <i type="logical" name="LVEL"> F  </i>
   <i type="int" name="KINTER">     0</i>
   <i name="CSHIFT">      0.10000000</i>
   <i name="OMEGAMAX">     -1.00000000</i>
   <i name="DEG_THRESHOLD">      0.00200000</i>
   <i name="RTIME">     -0.10000000</i>
   <i name="WPLASMAI">      0.00000000</i>
   <v name="DFIELD">      0.00000000      0.00000000      0.00000000</v>
   <v name="WPLASMA">      0.00000000      0.00000000      0.00000000      0.00000000      0.00000000      0.00000000      0.00000000      0.00000000      0.00000000</v>
  </separator>
  <separator name="orbital magnetization" >
   <i type="logical" name="NUCIND"> F  </i>
   <v name="MAGPOS">      0.00000000      0.00000000      0.00000000</v>
   <i type="logical" name="LNICSALL"> T  </i>
   <i type="logical" name="ORBITALMAG"> F  </i>
   <i type="logical" name="LMAGBLOCH"> F  </i>
   <i type="logical" name="LCHIMAG"> F  </i>
   <i type="logical" name="LGAUGE"> T  </i>
   <i type="int" name="MAGATOM">     0</i>
   <v name="MAGDIPOL">      0.00000000      0.00000000      0.00000000</v>
   <v name="AVECCONST">      0.00000000      0.00000000      0.00000000</v>
  </separator>
  <separator name="response functions" >
   <i type="logical" name="LADDER"> F  </i>
   <i type="logical" name="LRPAFORCE"> F  </i>
   <i type="logical" name="LFXC"> F  </i>
   <i type="logical" name="LHARTREE"> T  </i>
   <i type="int" name="IBSE">     0</i>
   <v type="int" name="KPOINT">    -1     0     0     0</v>
   <i type="logical" name="LTCTE"> F  </i>
   <i type="logical" name="LTETE"> F  </i>
   <i type="logical" name="LTRIPLET"> F  </i>
   <i type="logical" name="LFXCEPS"> F  </i>
   <i type="logical" name="LFXHEG"> F  </i>
   <i type="int" name="NATURALO">     2</i>
   <i type="logical" name="L2ORDER"> F  </i>
   <i type="logical" name="LMP2LT"> F  </i>
   <i type="logical" name="LUSEW"> F  </i>
   <i name="ENCUTGW">     -2.00000000</i>
   <i name="ENCUTGWSOFT">     -2.00000000</i>
   <i name="ENCUTLF">     -1.00000000</i>
   <i type="int" name="LMAXMP2">    -1</i>
   <i name="SCISSOR">      0.00000000</i>
   <i type="int" name="NOMEGA">     0</i>
   <i type="int" name="NOMEGAR">     0</i>
   <i type="int" name="NBANDSGW">    -1</i>
   <i type="int" name="NBANDSO">    -1</i>
   <i type="int" name="NBANDSV">    -1</i>
   <i type="int" name="NELM">   400</i>
   <i type="int" name="NELMHF">     1</i>
   <i type="int" name="DIM">     3</i>
   <i type="int" name="ANTIRES">     0</i>
   <i name="OMEGAMAX">    -30.00000000</i>
   <i name="OMEGAMIN">    -30.00000000</i>
   <i name="OMEGATL">   -200.00000000</i>
   <i type="int" name="OMEGAGRID">   140</i>
   <i name="CSHIFT">     -0.10000000</i>
   <i type="logical" name="SELFENERGY"> F  </i>
   <i type="logical" name="LSPECTRAL"> F  </i>
   <i type="logical" name="LSPECTRALGW"> F  </i>
   <i type="logical" name="LSINGLES"> F  </i>
   <i type="logical" name="LFERMIGW"> F  </i>
   <i type="logical" name="ODDONLYGW"> F  </i>
   <i type="logical" name="EVENONLYGW"> F  </i>
   <i type="int" name="NKREDLFX">     1</i>
   <i type="int" name="NKREDLFY">     1</i>
   <i type="int" name="NKREDLFZ">     1</i>
   <i type="int" name="MAXMEM">  2800</i>
   <i type="int" name="TELESCOPE">     0</i>
   <i type="int" name="TAUPAR">     1</i>
   <i type="int" name="OMEGAPAR">    -1</i>
   <i name="LAMBDA">      1.00000000</i>
  </separator>
  <separator name="External order field" >
   <i name="OFIELD_KAPPA">      0.00000000</i>
   <v name="OFIELD_K">      0.00000000      0.00000000      0.00000000</v>
   <i name="OFIELD_Q6_NEAR">      0.00000000</i>
   <i name="OFIELD_Q6_FAR">      0.00000000</i>
   <i name="OFIELD_A">      0.00000000</i>
  </separator>
 </parameters>
 <atominfo>
  <atoms>       6 </atoms>
  <types>       3 </types>
  <array name="atoms" >
   <dimension dim="1">ion</dimension>
   <field type="string">element</field>
   <field type="int">atomtype</field>
   <set>
    <rc><c>S </c><c>   1</c></rc>
    <rc><c>S </c><c>   1</c></rc>
    <rc><c>S </c><c>   1</c></rc>
    <rc><c>S </c><c>   1</c></rc>
    <rc><c>Mo</c><c>   2</c></rc>
    <rc><c>W </c><c>   3</c></rc>
   </set>
  </array>
  <array name="atomtypes" >
   <dimension dim="1">type</dimension>
   <field type="int">atomspertype</field>
   <field type="string">element</field>
   <field>mass</field>
   <field>valence</field>
   <field type="string">pseudopotential</field>
   <set>
    <rc><c>   4</c><c>S </c><c>     32.06600000</c><c>      6.00000000</c><c>  PAW_PBE S 17Jan2003                   </c></rc>
    <rc><c>   1</c><c>Mo</c><c>     95.94000000</c><c>      6.00000000</c><c> PAW_PBE Mo 08Apr2002                   </c></rc>
    <rc><c>   1</c><c>W </c><c>    183.85000000</c><c>      6.00000000</c><c> PAW_PBE W 08Apr2002                    </c></rc>
   </set>
  </array>
 </atominfo>
 <structure name="initialpos" >
  <crystal>
   <varray name="basis" >
    <v>       3.18650000       0.00000000       0.00000000 </v>
    <v>      -1.59325000       2.75958995       0.00000000 </v>
    <v>       0.00000000       0.00000000      20.00000000 </v>
   </varray>
   <i name="volume">    175.86866745 </i>
   <varray name="rec_basis" >
    <v>       0.31382394       0.18118634       0.00000000 </v>
    <v>       0.00000000       0.36237268       0.00000000 </v>
    <v>       0.00000000       0.00000000       0.05000000 </v>
   </varray>
  </crystal>
  <varray name="positions" >
   <v>       0.65902527       0.34587942       0.69283634 </v>
   <v>       0.65905005       0.34586411       0.53651181 </v>
   <v>       0.99788073       0.00109173       0.38437599 </v>
   <v>       0.99783320       0.00099507       0.22844737 </v>
   <v>       0.66436778       0.33429416       0.30644433 </v>
   <v>       0.99243815       0.01248506       0.61460282 </v>
  </varray>
  <varray name="selective"  type="logical" >
   <v type="logical" >  T  T  T </v>
   <v type="logical" >  T  T  T </v>
   <v type="logical" >  T  T  T </v>
   <v type="logical" >  T  T  T </v>
   <v type="logical" >  T  T  T </v>
   <v type="logical" >  T  T  T </v>
  </varray>
  <nose>
   <v>      -3.00000000       0.00000000       0.00010000       0.00010000 </v>
  </nose>
 </structure>
 <calculation>
  <scstep>
   <time name="dav">    1.14    1.15</time>
   <time name="total">    1.15    1.16</time>
   <energy>
    <i name="alphaZ">     68.88242450 </i>
    <i name="ewald">   2358.05440295 </i>
    <i name="hartreedc">  -3933.96053417 </i>
    <i name="XCdc">    -56.81119475 </i>
    <i name="pawpsdc">    931.04810714 </i>
    <i name="pawaedc">   -791.45045404 </i>
    <i name="eentropy">     -0.01132977 </i>
    <i name="bandstr">     50.92143247 </i>
    <i name="atom">   1529.39674839 </i>
    <i name="e_fr_energy">    156.06960272 </i>
    <i name="e_wo_entrp">    156.08093249 </i>
    <i name="e_0_energy">    156.07526760 </i>
   </energy>
  </scstep>
  <scstep>
   <time name="dav">    1.33    1.33</time>
   <time name="total">    1.33    1.33</time>
   <energy>
    <i name="e_fr_energy">    -31.71311177 </i>
    <i name="e_wo_entrp">    -31.71311177 </i>
    <i name="e_0_energy">    -31.71311177 </i>
   </energy>
  </scstep>
  <scstep>
   <time name="dav">    1.32    1.32</time>
   <time name="total">    1.32    1.32</time>
   <energy>
    <i name="e_fr_energy">    -44.45776459 </i>
    <i name="e_wo_entrp">    -44.45776459 </i>
    <i name="e_0_energy">    -44.45776459 </i>
   </energy>
  </scstep>
  <scstep>
   <time name="dav">    1.31    1.32</time>
   <time name="total">    1.31    1.32</time>
   <energy>
    <i name="e_fr_energy">    -44.66241908 </i>
    <i name="e_wo_entrp">    -44.66241908 </i>
    <i name="e_0_energy">    -44.66241908 </i>
   </energy>
  </scstep>
  <scstep>
   <time name="dav">    1.35    1.36</time>
   <time name="total">    1.35    1.36</time>
   <energy>
    <i name="e_fr_energy">    -44.66798520 </i>
    <i name="e_wo_entrp">    -44.66798520 </i>
    <i name="e_0_energy">    -44.66798520 </i>
   </energy>
  </scstep>
  <scstep>
   <time name="diag">    0.31    0.31</time>
   <time name="diis">    0.54    0.54</time>
   <time name="orth">    0.03    0.03</time>
   <time name="total">    0.89    0.89</time>
   <energy>
    <i name="e_fr_energy">    -44.66819894 </i>
    <i name="e_wo_entrp">    -44.66819894 </i>
    <i name="e_0_energy">    -44.66819894 </i>
   </energy>
  </scstep>
  <scstep>
   <time name="diag">    0.31    0.32</time>
   <time name="diis">    0.82    0.82</time>
   <time name="orth">    0.03    0.03</time>
   <time name="total">    1.17    1.17</time>
   <energy>
    <i name="e_fr_energy">    -44.66822196 </i>
    <i name="e_wo_entrp">    -44.66822196 </i>
    <i name="e_0_energy">    -44.66822196 </i>
   </energy>
  </scstep>
  <scstep>
   <time name="diag">    0.31    0.31</time>
   <time name="diis">    0.55    0.55</time>
   <time name="orth">    0.03    0.03</time>
   <time name="total">    0.90    0.90</time>
   <energy>
    <i name="alphaZ">     68.88242450 </i>
    <i name="ewald">   2358.05440295 </i>
    <i name="hartreedc">  -3933.96053417 </i>
    <i name="XCdc">    -56.81119475 </i>
    <i name="pawpsdc">    931.04810714 </i>
    <i name="pawaedc">   -791.45045404 </i>
    <i name="eentropy">     -0.00000000 </i>
    <i name="bandstr">   -149.82772207 </i>
    <i name="atom">   1529.39674839 </i>
    <i name="e_fr_energy">    -44.66822206 </i>
    <i name="e_wo_entrp">    -44.66822206 </i>
    <i name="e_0_energy">    -44.66822206 </i>
   </energy>
  </scstep>
  <structure>
   <crystal>
    <varray name="basis" >
     <v>       3.18650000       0.00000000       0.00000000 </v>
     <v>      -1.59325000       2.75958995       0.00000000 </v>
     <v>       0.00000000       0.00000000      20.00000000 </v>
    </varray>
    <i name="volume">    175.86866745 </i>
    <varray name="rec_basis" >
     <v>       0.31382394       0.18118634       0.00000000 </v>
     <v>       0.00000000       0.36237268       0.00000000 </v>
     <v>       0.00000000       0.00000000       0.05000000 </v>
    </varray>
   </crystal>
   <varray name="positions" >
    <v>       0.65902527       0.34587942       0.69283634 </v>
    <v>       0.65905005       0.34586411       0.53651181 </v>
    <v>       0.99788073       0.00109173       0.38437599 </v>
    <v>       0.99783320       0.00099507       0.22844737 </v>
    <v>       0.66436778       0.33429416       0.30644433 </v>
    <v>       0.99243815       0.01248506       0.61460282 </v>
   </varray>
  </structure>
  <varray name="forces" >
   <v>       0.11899732       0.02999284       0.06998990 </v>
   <v>       0.10458734       0.03508371       0.02193779 </v>
   <v>      -0.24567183      -0.06678276      -0.00060254 </v>
   <v>      -0.26055770      -0.06044168      -0.09561034 </v>
   <v>       0.35370525       0.08010135      -0.02056266 </v>
   <v>      -0.07106038      -0.01795346       0.02484786 </v>
  </varray>
  <varray name="stress" >
   <v>      -0.41666185       3.77062767      -1.65453319 </v>
   <v>       3.77062763      -0.57414239      -0.54709792 </v>
   <v>      -1.65453319      -0.54709796      22.60128877 </v>
  </varray>
  <energy>
   <i name="e_fr_energy">    -46.36039819 </i>
   <i name="e_wo_entrp">    -46.36039819 </i>
   <i name="e_0_energy">     -0.00000000 </i>
  </energy>
  <time name="totalsc">   10.35   10.39</time>
  <eigenvalues>
   <array>
    <dimension dim="1">band</dimension>
    <dimension dim="2">kpoint</dimension>
    <dimension dim="3">spin</dimension>
    <field>eigene</field>
    <field>occ</field>
    <set>
     <set comment="spin 1">
      <set comment="kpoint 1">
       <r>  -11.5790    1.0000 </r>
       <r>  -11.3587    1.0000 </r>
       <r>  -11.2557    1.0000 </r>
       <r>  -11.1020    1.0000 </r>
       <r>   -5.3730    1.0000 </r>
       <r>   -4.8271    1.0000 </r>
       <r>   -4.0774    1.0000 </r>
       <r>   -3.8812    1.0000 </r>
       <r>   -3.3851    1.0000 </r>
       <r>   -3.0448    1.0000 </r>
       <r>   -2.3122    1.0000 </r>
       <r>   -2.2350    1.0000 </r>
       <r>   -1.0523    1.0000 </r>
       <r>   -0.9064    1.0000 </r>
       <r>   -0.1913    1.0000 </r>
       <r>   -0.0338    1.0000 </r>
       <r>    0.1677    1.0000 </r>
       <r>    0.2890    1.0000 </r>
       <r>    3.1044    0.0000 </r>
       <r>    3.6192    0.0000 </r>
       <r>    3.8999    0.0000 </r>
       <r>    4.3710    0.0000 </r>
       <r>    4.7579    0.0000 </r>
       <r>    5.1745    0.0000 </r>
       <r>    5.3215    0.0000 </r>
       <r>    5.8378    0.0000 </r>
       <r>    6.2437    0.0000 </r>
       <r>    7.1316    0.0000 </r>
       <r>    8.5685    0.0000 </r>
       <r>    8.9125    0.0000 </r>
       <r>    9.2490    0.0000 </r>
       <r>    9.6473    0.0000 </r>
       <r>   10.0750    0.0000 </r>
       <r>   10.4742    0.0000 </r>
       <r>   10.6677    0.0000 </r>
       <r>   11.2521    0.0000 </r>
       <r>   11.8040    0.0000 </r>
       <r>   11.9810    0.0000 </r>
       <r>   12.1301    0.0000 </r>
       <r>   12.5293    0.0000 </r>
       <r>   12.8428    0.0000 </r>
       <r>   13.0842    0.0000 </r>
       <r>   14.2019    0.0000 </r>
       <r>   14.6441    0.0000 </r>
       <r>   15.2436    0.0000 </r>
       <r>   15.6547    0.0000 </r>
       <r>   16.1876    0.0000 </r>
       <r>   17.2389    0.0000 </r>
      </set>
      <set comment="kpoint 2">
       <r>  -11.5874    1.0000 </r>
       <r>  -11.3657    1.0000 </r>
       <r>  -11.2586    1.0000 </r>
       <r>  -11.1047    1.0000 </r>
       <r>   -5.3638    1.0000 </r>
       <r>   -4.8201    1.0000 </r>
       <r>   -4.0704    1.0000 </r>
       <r>   -3.8739    1.0000 </r>
       <r>   -3.3829    1.0000 </r>
       <r>   -3.0415    1.0000 </r>
       <r>   -2.3085    1.0000 </r>
       <r>   -2.2315    1.0000 </r>
       <r>   -1.0515    1.0000 </r>
       <r>   -0.9026    1.0000 </r>
       <r>   -0.1949    1.0000 </r>
       <r>   -0.0383    1.0000 </r>
       <r>    0.1576    1.0000 </r>
       <r>    0.2827    1.0000 </r>
       <r>    3.1032    0.0000 </r>
       <r>    3.6124    0.0000 </r>
       <r>    3.8948    0.0000 </r>
       <r>    4.3550    0.0000 </r>
       <r>    4.7550    0.0000 </r>
       <r>    5.1725    0.0000 </r>
       <r>    5.3190    0.0000 </r>
       <r>    5.8352    0.0000 </r>
       <r>    6.2714    0.0000 </r>
       <r>    7.1561    0.0000 </r>
       <r>    8.5682    0.0000 </r>
       <r>    8.9085    0.0000 </r>
       <r>    9.2343    0.0000 </r>
       <r>    9.6389    0.0000 </r>
       <r>   10.0701    0.0000 </r>
       <r>   10.4917    0.0000 </r>
       <r>   10.6711    0.0000 </r>
       <r>   11.2341    0.0000 </r>
       <r>   11.8197    0.0000 </r>
       <r>   11.9613    0.0000 </r>
       <r>   12.1694    0.0000 </r>
       <r>   12.5436    0.0000 </r>
       <r>   12.8694    0.0000 </r>
       <r>   13.1139    0.0000 </r>
       <r>   14.1518    0.0000 </r>
       <r>   14.7095    0.0000 </r>
       <r>   15.2116    0.0000 </r>
       <r>   15.6620    0.0000 </r>
       <r>   16.1737    0.0000 </r>
       <r>   17.2453    0.0000 </r>
      </set>
      <set comment="kpoint 3">
       <r>  -11.6124    1.0000 </r>
       <r>  -11.3864    1.0000 </r>
       <r>  -11.2676    1.0000 </r>
       <r>  -11.1128    1.0000 </r>
       <r>   -5.3364    1.0000 </r>
       <r>   -4.7991    1.0000 </r>
       <r>   -4.0494    1.0000 </r>
       <r>   -3.8524    1.0000 </r>
       <r>   -3.3767    1.0000 </r>
       <r>   -3.0319    1.0000 </r>
       <r>   -2.2974    1.0000 </r>
       <r>   -2.2209    1.0000 </r>
       <r>   -1.0491    1.0000 </r>
       <r>   -0.8913    1.0000 </r>
       <r>   -0.2056    1.0000 </r>
       <r>   -0.0517    1.0000 </r>
       <r>    0.1292    1.0000 </r>
       <r>    0.2638    1.0000 </r>
       <r>    3.0998    0.0000 </r>
       <r>    3.5926    0.0000 </r>
       <r>    3.8800    0.0000 </r>
       <r>    4.3109    0.0000 </r>
       <r>    4.7453    0.0000 </r>
       <r>    5.1666    0.0000 </r>
       <r>    5.3107    0.0000 </r>
       <r>    5.8276    0.0000 </r>
       <r>    6.3517    0.0000 </r>
       <r>    7.2279    0.0000 </r>
       <r>    8.5677    0.0000 </r>
       <r>    8.8984    0.0000 </r>
       <r>    9.1941    0.0000 </r>
       <r>    9.6083    0.0000 </r>
       <r>   10.0650    0.0000 </r>
       <r>   10.5286    0.0000 </r>
       <r>   10.6762    0.0000 </r>
       <r>   11.2121    0.0000 </r>
       <r>   11.8665    0.0000 </r>
       <r>   11.9088    0.0000 </r>
       <r>   12.2636    0.0000 </r>
       <r>   12.5862    0.0000 </r>
       <r>   12.9444    0.0000 </r>
       <r>   13.2014    0.0000 </r>
       <r>   14.0556    0.0000 </r>
       <r>   14.8486    0.0000 </r>
       <r>   15.1285    0.0000 </r>
       <r>   15.6746    0.0000 </r>
       <r>   16.1308    0.0000 </r>
       <r>   17.1657    0.0000 </r>
      </set>
      <set comment="kpoint 4">
       <r>  -11.6533    1.0000 </r>
       <r>  -11.4202    1.0000 </r>
       <r>  -11.2824    1.0000 </r>
       <r>  -11.1262    1.0000 </r>
       <r>   -5.2916    1.0000 </r>
       <r>   -4.7650    1.0000 </r>
       <r>   -4.0150    1.0000 </r>
       <r>   -3.8171    1.0000 </r>
       <r>   -3.3671    1.0000 </r>
       <r>   -3.0167    1.0000 </r>
       <r>   -2.2790    1.0000 </r>
       <r>   -2.2034    1.0000 </r>
       <r>   -1.0442    1.0000 </r>
       <r>   -0.8730    1.0000 </r>
       <r>   -0.2235    1.0000 </r>
       <r>   -0.0741    1.0000 </r>
       <r>    0.0866    1.0000 </r>
       <r>    0.2332    1.0000 </r>
       <r>    3.0947    0.0000 </r>
       <r>    3.5613    0.0000 </r>
       <r>    3.8566    0.0000 </r>
       <r>    4.2474    0.0000 </r>
       <r>    4.7265    0.0000 </r>
       <r>    5.1566    0.0000 </r>
       <r>    5.2948    0.0000 </r>
       <r>    5.8147    0.0000 </r>
       <r>    6.4769    0.0000 </r>
       <r>    7.3426    0.0000 </r>
       <r>    8.5671    0.0000 </r>
       <r>    8.8866    0.0000 </r>
       <r>    9.1364    0.0000 </r>
       <r>    9.5543    0.0000 </r>
       <r>   10.0589    0.0000 </r>
       <r>   10.5645    0.0000 </r>
       <r>   10.6765    0.0000 </r>
       <r>   11.2338    0.0000 </r>
       <r>   11.8488    0.0000 </r>
       <r>   11.9434    0.0000 </r>
       <r>   12.3578    0.0000 </r>
       <r>   12.6561    0.0000 </r>
       <r>   13.0712    0.0000 </r>
       <r>   13.3332    0.0000 </r>
       <r>   13.9684    0.0000 </r>
       <r>   14.9479    0.0000 </r>
       <r>   15.0677    0.0000 </r>
       <r>   15.6794    0.0000 </r>
       <r>   16.0623    0.0000 </r>
       <r>   17.0963    0.0000 </r>
      </set>
      <set comment="kpoint 5">
       <r>  -11.7087    1.0000 </r>
       <r>  -11.4663    1.0000 </r>
       <r>  -11.3028    1.0000 </r>
       <r>  -11.1446    1.0000 </r>
       <r>   -5.2307    1.0000 </r>
       <r>   -4.7185    1.0000 </r>
       <r>   -3.9678    1.0000 </r>
       <r>   -3.7687    1.0000 </r>
       <r>   -3.3552    1.0000 </r>
       <r>   -2.9972    1.0000 </r>
       <r>   -2.2533    1.0000 </r>
       <r>   -2.1789    1.0000 </r>
       <r>   -1.0359    1.0000 </r>
       <r>   -0.8483    1.0000 </r>
       <r>   -0.2489    1.0000 </r>
       <r>   -0.1055    1.0000 </r>
       <r>    0.0359    1.0000 </r>
       <r>    0.1930    1.0000 </r>
       <r>    3.0890    0.0000 </r>
       <r>    3.5204    0.0000 </r>
       <r>    3.8265    0.0000 </r>
       <r>    4.1732    0.0000 </r>
       <r>    4.6971    0.0000 </r>
       <r>    5.1423    0.0000 </r>
       <r>    5.2693    0.0000 </r>
       <r>    5.7964    0.0000 </r>
       <r>    6.6374    0.0000 </r>
       <r>    7.4932    0.0000 </r>
       <r>    8.5660    0.0000 </r>
       <r>    8.8777    0.0000 </r>
       <r>    9.0692    0.0000 </r>
       <r>    9.4890    0.0000 </r>
       <r>   10.0284    0.0000 </r>
       <r>   10.5935    0.0000 </r>
       <r>   10.6893    0.0000 </r>
       <r>   11.3016    0.0000 </r>
       <r>   11.8070    0.0000 </r>
       <r>   12.0478    0.0000 </r>
       <r>   12.4181    0.0000 </r>
       <r>   12.7513    0.0000 </r>
       <r>   13.2553    0.0000 </r>
       <r>   13.4850    0.0000 </r>
       <r>   13.9138    0.0000 </r>
       <r>   14.8250    0.0000 </r>
       <r>   15.1934    0.0000 </r>
       <r>   15.6754    0.0000 </r>
       <r>   15.9686    0.0000 </r>
       <r>   17.0551    0.0000 </r>
      </set>
      <set comment="kpoint 6">
       <r>  -11.7773    1.0000 </r>
       <r>  -11.5236    1.0000 </r>
       <r>  -11.3285    1.0000 </r>
       <r>  -11.1676    1.0000 </r>
       <r>   -5.1554    1.0000 </r>
       <r>   -4.6613    1.0000 </r>
       <r>   -3.9090    1.0000 </r>
       <r>   -3.7087    1.0000 </r>
       <r>   -3.3419    1.0000 </r>
       <r>   -2.9752    1.0000 </r>
       <r>   -2.2204    1.0000 </r>
       <r>   -2.1476    1.0000 </r>
       <r>   -1.0235    1.0000 </r>
       <r>   -0.8176    1.0000 </r>
       <r>   -0.2818    1.0000 </r>
       <r>   -0.1458    1.0000 </r>
       <r>   -0.0168    1.0000 </r>
       <r>    0.1473    1.0000 </r>
       <r>    3.0838    0.0000 </r>
       <r>    3.4724    0.0000 </r>
       <r>    3.7920    0.0000 </r>
       <r>    4.0949    0.0000 </r>
       <r>    4.6566    0.0000 </r>
       <r>    5.1235    0.0000 </r>
       <r>    5.2332    0.0000 </r>
       <r>    5.7723    0.0000 </r>
       <r>    6.8234    0.0000 </r>
       <r>    7.6704    0.0000 </r>
       <r>    8.5601    0.0000 </r>
       <r>    8.8718    0.0000 </r>
       <r>    9.0052    0.0000 </r>
       <r>    9.4278    0.0000 </r>
       <r>    9.9622    0.0000 </r>
       <r>   10.6022    0.0000 </r>
       <r>   10.7477    0.0000 </r>
       <r>   11.3789    0.0000 </r>
       <r>   11.8042    0.0000 </r>
       <r>   12.1771    0.0000 </r>
       <r>   12.4502    0.0000 </r>
       <r>   12.8697    0.0000 </r>
       <r>   13.4704    0.0000 </r>
       <r>   13.6388    0.0000 </r>
       <r>   13.9052    0.0000 </r>
       <r>   14.6523    0.0000 </r>
       <r>   15.3111    0.0000 </r>
       <r>   15.6805    0.0000 </r>
       <r>   15.8518    0.0000 </r>
       <r>   16.8753    0.0000 </r>
      </set>
      <set comment="kpoint 7">
       <r>  -11.8573    1.0000 </r>
       <r>  -11.5908    1.0000 </r>
       <r>  -11.3590    1.0000 </r>
       <r>  -11.1948    1.0000 </r>
       <r>   -5.0678    1.0000 </r>
       <r>   -4.5948    1.0000 </r>
       <r>   -3.8404    1.0000 </r>
       <r>   -3.6394    1.0000 </r>
       <r>   -3.3273    1.0000 </r>
       <r>   -2.9524    1.0000 </r>
       <r>   -2.1805    1.0000 </r>
       <r>   -2.1096    1.0000 </r>
       <r>   -1.0059    1.0000 </r>
       <r>   -0.7810    1.0000 </r>
       <r>   -0.3223    1.0000 </r>
       <r>   -0.1947    1.0000 </r>
       <r>   -0.0651    1.0000 </r>
       <r>    0.1009    1.0000 </r>
       <r>    3.0805    0.0000 </r>
       <r>    3.4193    0.0000 </r>
       <r>    3.7556    0.0000 </r>
       <r>    4.0167    0.0000 </r>
       <r>    4.6049    0.0000 </r>
       <r>    5.1000    0.0000 </r>
       <r>    5.1855    0.0000 </r>
       <r>    5.7423    0.0000 </r>
       <r>    7.0257    0.0000 </r>
       <r>    7.8622    0.0000 </r>
       <r>    8.5386    0.0000 </r>
       <r>    8.8530    0.0000 </r>
       <r>    8.9777    0.0000 </r>
       <r>    9.3840    0.0000 </r>
       <r>    9.8748    0.0000 </r>
       <r>   10.5937    0.0000 </r>
       <r>   10.8429    0.0000 </r>
       <r>   11.4297    0.0000 </r>
       <r>   11.8513    0.0000 </r>
       <r>   12.3277    0.0000 </r>
       <r>   12.4797    0.0000 </r>
       <r>   13.0081    0.0000 </r>
       <r>   13.6244    0.0000 </r>
       <r>   13.8298    0.0000 </r>
       <r>   13.9479    0.0000 </r>
       <r>   14.4598    0.0000 </r>
       <r>   15.3709    0.0000 </r>
       <r>   15.7147    0.0000 </r>
       <r>   15.7290    0.0000 </r>
       <r>   16.7569    0.0000 </r>
      </set>
      <set comment="kpoint 8">
       <r>  -11.9469    1.0000 </r>
       <r>  -11.6667    1.0000 </r>
       <r>  -11.3936    1.0000 </r>
       <r>  -11.2257    1.0000 </r>
       <r>   -4.9705    1.0000 </r>
       <r>   -4.5210    1.0000 </r>
       <r>   -3.7646    1.0000 </r>
       <r>   -3.5650    1.0000 </r>
       <r>   -3.3086    1.0000 </r>
       <r>   -2.9310    1.0000 </r>
       <r>   -2.1337    1.0000 </r>
       <r>   -2.0650    1.0000 </r>
       <r>   -0.9827    1.0000 </r>
       <r>   -0.7385    1.0000 </r>
       <r>   -0.3705    1.0000 </r>
       <r>   -0.2520    1.0000 </r>
       <r>   -0.1033    1.0000 </r>
       <r>    0.0595    1.0000 </r>
       <r>    3.0803    0.0000 </r>
       <r>    3.3634    0.0000 </r>
       <r>    3.7200    0.0000 </r>
       <r>    3.9411    0.0000 </r>
       <r>    4.5427    0.0000 </r>
       <r>    5.0714    0.0000 </r>
       <r>    5.1260    0.0000 </r>
       <r>    5.7058    0.0000 </r>
       <r>    7.2354    0.0000 </r>
       <r>    8.0524    0.0000 </r>
       <r>    8.4862    0.0000 </r>
       <r>    8.8148    0.0000 </r>
       <r>    9.0156    0.0000 </r>
       <r>    9.3686    0.0000 </r>
       <r>    9.7852    0.0000 </r>
       <r>   10.5792    0.0000 </r>
       <r>   10.9443    0.0000 </r>
       <r>   11.4531    0.0000 </r>
       <r>   11.9289    0.0000 </r>
       <r>   12.4960    0.0000 </r>
       <r>   12.5338    0.0000 </r>
       <r>   13.1620    0.0000 </r>
       <r>   13.6766    0.0000 </r>
       <r>   13.9776    0.0000 </r>
       <r>   14.0777    0.0000 </r>
       <r>   14.2804    0.0000 </r>
       <r>   15.3883    0.0000 </r>
       <r>   15.5713    0.0000 </r>
       <r>   15.8157    0.0000 </r>
       <r>   16.5728    0.0000 </r>
      </set>
      <set comment="kpoint 9">
       <r>  -12.0443    1.0000 </r>
       <r>  -11.7496    1.0000 </r>
       <r>  -11.4319    1.0000 </r>
       <r>  -11.2598    1.0000 </r>
       <r>   -4.8667    1.0000 </r>
       <r>   -4.4422    1.0000 </r>
       <r>   -3.6869    1.0000 </r>
       <r>   -3.4924    1.0000 </r>
       <r>   -3.2773    1.0000 </r>
       <r>   -2.9123    1.0000 </r>
       <r>   -2.0803    1.0000 </r>
       <r>   -2.0141    1.0000 </r>
       <r>   -0.9532    1.0000 </r>
       <r>   -0.6901    1.0000 </r>
       <r>   -0.4263    1.0000 </r>
       <r>   -0.3172    1.0000 </r>
       <r>   -0.1264    1.0000 </r>
       <r>    0.0288    1.0000 </r>
       <r>    3.0845    0.0000 </r>
       <r>    3.3065    0.0000 </r>
       <r>    3.6874    0.0000 </r>
       <r>    3.8693    0.0000 </r>
       <r>    4.4708    0.0000 </r>
       <r>    5.0370    0.0000 </r>
       <r>    5.0555    0.0000 </r>
       <r>    5.6626    0.0000 </r>
       <r>    7.4432    0.0000 </r>
       <r>    8.2146    0.0000 </r>
       <r>    8.4033    0.0000 </r>
       <r>    8.7862    0.0000 </r>
       <r>    9.1081    0.0000 </r>
       <r>    9.3895    0.0000 </r>
       <r>    9.7067    0.0000 </r>
       <r>   10.5644    0.0000 </r>
       <r>   11.0205    0.0000 </r>
       <r>   11.4778    0.0000 </r>
       <r>   12.0055    0.0000 </r>
       <r>   12.6282    0.0000 </r>
       <r>   12.6779    0.0000 </r>
       <r>   13.3264    0.0000 </r>
       <r>   13.6648    0.0000 </r>
       <r>   13.9610    0.0000 </r>
       <r>   14.0347    0.0000 </r>
       <r>   14.4049    0.0000 </r>
       <r>   15.4008    0.0000 </r>
       <r>   15.4258    0.0000 </r>
       <r>   15.9369    0.0000 </r>
       <r>   16.3307    0.0000 </r>
      </set>
      <set comment="kpoint 10">
       <r>  -12.1477    1.0000 </r>
       <r>  -11.8381    1.0000 </r>
       <r>  -11.4730    1.0000 </r>
       <r>  -11.2965    1.0000 </r>
       <r>   -4.7609    1.0000 </r>
       <r>   -4.3608    1.0000 </r>
       <r>   -3.6175    1.0000 </r>
       <r>   -3.4267    1.0000 </r>
       <r>   -3.2207    1.0000 </r>
       <r>   -2.8963    1.0000 </r>
       <r>   -2.0205    1.0000 </r>
       <r>   -1.9571    1.0000 </r>
       <r>   -0.9172    1.0000 </r>
       <r>   -0.6356    1.0000 </r>
       <r>   -0.4893    1.0000 </r>
       <r>   -0.3897    1.0000 </r>
       <r>   -0.1311    1.0000 </r>
       <r>    0.0134    1.0000 </r>
       <r>    3.0940    0.0000 </r>
       <r>    3.2507    0.0000 </r>
       <r>    3.6600    0.0000 </r>
       <r>    3.8022    0.0000 </r>
       <r>    4.3906    0.0000 </r>
       <r>    4.9728    0.0000 </r>
       <r>    4.9988    0.0000 </r>
       <r>    5.6124    0.0000 </r>
       <r>    7.6373    0.0000 </r>
       <r>    8.2450    0.0000 </r>
       <r>    8.3774    0.0000 </r>
       <r>    8.7888    0.0000 </r>
       <r>    9.2482    0.0000 </r>
       <r>    9.4493    0.0000 </r>
       <r>    9.6467    0.0000 </r>
       <r>   10.5516    0.0000 </r>
       <r>   11.0440    0.0000 </r>
       <r>   11.5317    0.0000 </r>
       <r>   12.0686    0.0000 </r>
       <r>   12.7578    0.0000 </r>
       <r>   12.8684    0.0000 </r>
       <r>   13.4937    0.0000 </r>
       <r>   13.5860    0.0000 </r>
       <r>   13.7227    0.0000 </r>
       <r>   14.0740    0.0000 </r>
       <r>   14.5909    0.0000 </r>
       <r>   15.2527    0.0000 </r>
       <r>   15.4951    0.0000 </r>
       <r>   15.9965    0.0000 </r>
       <r>   16.1595    0.0000 </r>
      </set>
      <set comment="kpoint 11">
       <r>  -12.2554    1.0000 </r>
       <r>  -11.9308    1.0000 </r>
       <r>  -11.5163    1.0000 </r>
       <r>  -11.3353    1.0000 </r>
       <r>   -4.6592    1.0000 </r>
       <r>   -4.2793    1.0000 </r>
       <r>   -3.5711    1.0000 </r>
       <r>   -3.3569    1.0000 </r>
       <r>   -3.1372    1.0000 </r>
       <r>   -2.8804    1.0000 </r>
       <r>   -1.9545    1.0000 </r>
       <r>   -1.8943    1.0000 </r>
       <r>   -0.8749    1.0000 </r>
       <r>   -0.5754    1.0000 </r>
       <r>   -0.5587    1.0000 </r>
       <r>   -0.4684    1.0000 </r>
       <r>   -0.1154    1.0000 </r>
       <r>    0.0171    1.0000 </r>
       <r>    3.1095    0.0000 </r>
       <r>    3.1980    0.0000 </r>
       <r>    3.6394    0.0000 </r>
       <r>    3.7402    0.0000 </r>
       <r>    4.3038    0.0000 </r>
       <r>    4.8826    0.0000 </r>
       <r>    4.9531    0.0000 </r>
       <r>    5.5548    0.0000 </r>
       <r>    7.7952    0.0000 </r>
       <r>    8.1365    0.0000 </r>
       <r>    8.4155    0.0000 </r>
       <r>    8.8433    0.0000 </r>
       <r>    9.4251    0.0000 </r>
       <r>    9.5439    0.0000 </r>
       <r>    9.6114    0.0000 </r>
       <r>   10.5399    0.0000 </r>
       <r>   11.0152    0.0000 </r>
       <r>   11.6116    0.0000 </r>
       <r>   12.1199    0.0000 </r>
       <r>   12.8999    0.0000 </r>
       <r>   13.0619    0.0000 </r>
       <r>   13.4210    0.0000 </r>
       <r>   13.5051    0.0000 </r>
       <r>   13.6564    0.0000 </r>
       <r>   14.1105    0.0000 </r>
       <r>   14.6850    0.0000 </r>
       <r>   15.0931    0.0000 </r>
       <r>   15.6758    0.0000 </r>
       <r>   15.7727    0.0000 </r>
       <r>   15.8920    0.0000 </r>
      </set>
      <set comment="kpoint 12">
       <r>  -12.3658    1.0000 </r>
       <r>  -12.0263    1.0000 </r>
       <r>  -11.5613    1.0000 </r>
       <r>  -11.3756    1.0000 </r>
       <r>   -4.5706    1.0000 </r>
       <r>   -4.2000    1.0000 </r>
       <r>   -3.5483    1.0000 </r>
       <r>   -3.2707    1.0000 </r>
       <r>   -3.0411    1.0000 </r>
       <r>   -2.8555    1.0000 </r>
       <r>   -1.8828    1.0000 </r>
       <r>   -1.8259    1.0000 </r>
       <r>   -0.8269    1.0000 </r>
       <r>   -0.6350    1.0000 </r>
       <r>   -0.5526    1.0000 </r>
       <r>   -0.5085    1.0000 </r>
       <r>   -0.0788    1.0000 </r>
       <r>    0.0415    1.0000 </r>
       <r>    3.1314    0.0000 </r>
       <r>    3.1503    0.0000 </r>
       <r>    3.6268    0.0000 </r>
       <r>    3.6835    0.0000 </r>
       <r>    4.2127    0.0000 </r>
       <r>    4.7849    0.0000 </r>
       <r>    4.9018    0.0000 </r>
       <r>    5.4896    0.0000 </r>
       <r>    7.8534    0.0000 </r>
       <r>    8.0555    0.0000 </r>
       <r>    8.4309    0.0000 </r>
       <r>    8.9396    0.0000 </r>
       <r>    9.5819    0.0000 </r>
       <r>    9.6166    0.0000 </r>
       <r>    9.6955    0.0000 </r>
       <r>   10.5253    0.0000 </r>
       <r>   10.9556    0.0000 </r>
       <r>   11.6893    0.0000 </r>
       <r>   12.1609    0.0000 </r>
       <r>   13.0023    0.0000 </r>
       <r>   13.2158    0.0000 </r>
       <r>   13.2532    0.0000 </r>
       <r>   13.3488    0.0000 </r>
       <r>   13.7982    0.0000 </r>
       <r>   14.1207    0.0000 </r>
       <r>   14.7238    0.0000 </r>
       <r>   14.9351    0.0000 </r>
       <r>   15.4683    0.0000 </r>
       <r>   15.6714    0.0000 </r>
       <r>   15.7759    0.0000 </r>
      </set>
      <set comment="kpoint 13">
       <r>  -12.4774    1.0000 </r>
       <r>  -12.1233    1.0000 </r>
       <r>  -11.6073    1.0000 </r>
       <r>  -11.4168    1.0000 </r>
       <r>   -4.5066    1.0000 </r>
       <r>   -4.1255    1.0000 </r>
       <r>   -3.5312    1.0000 </r>
       <r>   -3.1737    1.0000 </r>
       <r>   -2.9546    1.0000 </r>
       <r>   -2.8007    1.0000 </r>
       <r>   -1.8057    1.0000 </r>
       <r>   -1.7525    1.0000 </r>
       <r>   -0.7740    1.0000 </r>
       <r>   -0.7159    1.0000 </r>
       <r>   -0.6409    1.0000 </r>
       <r>   -0.4377    1.0000 </r>
       <r>   -0.0222    1.0000 </r>
       <r>    0.0867    1.0000 </r>
       <r>    3.1098    0.0000 </r>
       <r>    3.1600    0.0000 </r>
       <r>    3.6227    0.0000 </r>
       <r>    3.6328    0.0000 </r>
       <r>    4.1196    0.0000 </r>
       <r>    4.6820    0.0000 </r>
       <r>    4.8443    0.0000 </r>
       <r>    5.4168    0.0000 </r>
       <r>    7.7646    0.0000 </r>
       <r>    8.0314    0.0000 </r>
       <r>    8.4735    0.0000 </r>
       <r>    9.0499    0.0000 </r>
       <r>    9.5902    0.0000 </r>
       <r>    9.7860    0.0000 </r>
       <r>    9.8862    0.0000 </r>
       <r>   10.5015    0.0000 </r>
       <r>   10.8819    0.0000 </r>
       <r>   11.7344    0.0000 </r>
       <r>   12.1886    0.0000 </r>
       <r>   12.8952    0.0000 </r>
       <r>   13.1706    0.0000 </r>
       <r>   13.2625    0.0000 </r>
       <r>   13.4276    0.0000 </r>
       <r>   13.9025    0.0000 </r>
       <r>   14.0926    0.0000 </r>
       <r>   14.7471    0.0000 </r>
       <r>   14.7882    0.0000 </r>
       <r>   15.2060    0.0000 </r>
       <r>   15.4908    0.0000 </r>
       <r>   15.5992    0.0000 </r>
      </set>
      <set comment="kpoint 14">
       <r>  -12.5889    1.0000 </r>
       <r>  -12.2205    1.0000 </r>
       <r>  -11.6536    1.0000 </r>
       <r>  -11.4584    1.0000 </r>
       <r>   -4.4772    1.0000 </r>
       <r>   -4.0611    1.0000 </r>
       <r>   -3.5004    1.0000 </r>
       <r>   -3.0761    1.0000 </r>
       <r>   -2.8866    1.0000 </r>
       <r>   -2.7011    1.0000 </r>
       <r>   -1.7238    1.0000 </r>
       <r>   -1.6743    1.0000 </r>
       <r>   -0.8008    1.0000 </r>
       <r>   -0.7325    1.0000 </r>
       <r>   -0.7173    1.0000 </r>
       <r>   -0.3637    1.0000 </r>
       <r>    0.0523    1.0000 </r>
       <r>    0.1512    1.0000 </r>
       <r>    3.0790    0.0000 </r>
       <r>    3.1950    0.0000 </r>
       <r>    3.5877    0.0000 </r>
       <r>    3.6280    0.0000 </r>
       <r>    4.0274    0.0000 </r>
       <r>    4.5764    0.0000 </r>
       <r>    4.7809    0.0000 </r>
       <r>    5.3366    0.0000 </r>
       <r>    7.6292    0.0000 </r>
       <r>    7.9754    0.0000 </r>
       <r>    8.5476    0.0000 </r>
       <r>    9.1553    0.0000 </r>
       <r>    9.6181    0.0000 </r>
       <r>    9.9484    0.0000 </r>
       <r>   10.0964    0.0000 </r>
       <r>   10.4647    0.0000 </r>
       <r>   10.8016    0.0000 </r>
       <r>   11.7252    0.0000 </r>
       <r>   12.1951    0.0000 </r>
       <r>   12.7345    0.0000 </r>
       <r>   13.0959    0.0000 </r>
       <r>   13.3066    0.0000 </r>
       <r>   13.5731    0.0000 </r>
       <r>   13.9488    0.0000 </r>
       <r>   14.0434    0.0000 </r>
       <r>   14.6275    0.0000 </r>
       <r>   14.7106    0.0000 </r>
       <r>   15.0782    0.0000 </r>
       <r>   15.2619    0.0000 </r>
       <r>   15.4218    0.0000 </r>
      </set>
      <set comment="kpoint 15">
       <r>  -12.6990    1.0000 </r>
       <r>  -12.3168    1.0000 </r>
       <r>  -11.6997    1.0000 </r>
       <r>  -11.4999    1.0000 </r>
       <r>   -4.4852    1.0000 </r>
       <r>   -4.0169    1.0000 </r>
       <r>   -3.4425    1.0000 </r>
       <r>   -2.9852    1.0000 </r>
       <r>   -2.8120    1.0000 </r>
       <r>   -2.5745    1.0000 </r>
       <r>   -1.6377    1.0000 </r>
       <r>   -1.5919    1.0000 </r>
       <r>   -0.8884    1.0000 </r>
       <r>   -0.8250    1.0000 </r>
       <r>   -0.6593    1.0000 </r>
       <r>   -0.2888    1.0000 </r>
       <r>    0.1410    1.0000 </r>
       <r>    0.2326    1.0000 </r>
       <r>    3.0601    0.0000 </r>
       <r>    3.2362    0.0000 </r>
       <r>    3.5495    0.0000 </r>
       <r>    3.6419    0.0000 </r>
       <r>    3.9392    0.0000 </r>
       <r>    4.4705    0.0000 </r>
       <r>    4.7115    0.0000 </r>
       <r>    5.2491    0.0000 </r>
       <r>    7.4871    0.0000 </r>
       <r>    7.8874    0.0000 </r>
       <r>    8.6165    0.0000 </r>
       <r>    9.2411    0.0000 </r>
       <r>    9.6663    0.0000 </r>
       <r>   10.0995    0.0000 </r>
       <r>   10.2926    0.0000 </r>
       <r>   10.4262    0.0000 </r>
       <r>   10.7230    0.0000 </r>
       <r>   11.6670    0.0000 </r>
       <r>   12.1643    0.0000 </r>
       <r>   12.6382    0.0000 </r>
       <r>   13.0462    0.0000 </r>
       <r>   13.3145    0.0000 </r>
       <r>   13.6650    0.0000 </r>
       <r>   13.9265    0.0000 </r>
       <r>   13.9986    0.0000 </r>
       <r>   14.4764    0.0000 </r>
       <r>   14.5491    0.0000 </r>
       <r>   15.0886    0.0000 </r>
       <r>   15.1355    0.0000 </r>
       <r>   15.2769    0.0000 </r>
      </set>
      <set comment="kpoint 16">
       <r>  -12.8067    1.0000 </r>
       <r>  -12.4113    1.0000 </r>
       <r>  -11.7452    1.0000 </r>
       <r>  -11.5408    1.0000 </r>
       <r>   -4.5252    1.0000 </r>
       <r>   -4.0018    1.0000 </r>
       <r>   -3.3524    1.0000 </r>
       <r>   -2.8991    1.0000 </r>
       <r>   -2.7172    1.0000 </r>
       <r>   -2.4362    1.0000 </r>
       <r>   -1.5481    1.0000 </r>
       <r>   -1.5059    1.0000 </r>
       <r>   -0.9776    1.0000 </r>
       <r>   -0.9182    1.0000 </r>
       <r>   -0.6010    1.0000 </r>
       <r>   -0.2151    1.0000 </r>
       <r>    0.2378    1.0000 </r>
       <r>    0.3290    1.0000 </r>
       <r>    3.0552    0.0000 </r>
       <r>    3.2831    0.0000 </r>
       <r>    3.5181    0.0000 </r>
       <r>    3.6641    0.0000 </r>
       <r>    3.8583    0.0000 </r>
       <r>    4.3669    0.0000 </r>
       <r>    4.6367    0.0000 </r>
       <r>    5.1548    0.0000 </r>
       <r>    7.3468    0.0000 </r>
       <r>    7.7845    0.0000 </r>
       <r>    8.6526    0.0000 </r>
       <r>    9.2934    0.0000 </r>
       <r>    9.7215    0.0000 </r>
       <r>   10.1913    0.0000 </r>
       <r>   10.3683    0.0000 </r>
       <r>   10.5045    0.0000 </r>
       <r>   10.6866    0.0000 </r>
       <r>   11.5914    0.0000 </r>
       <r>   12.0948    0.0000 </r>
       <r>   12.6035    0.0000 </r>
       <r>   13.0109    0.0000 </r>
       <r>   13.2647    0.0000 </r>
       <r>   13.6656    0.0000 </r>
       <r>   13.8560    0.0000 </r>
       <r>   13.9610    0.0000 </r>
       <r>   14.3166    0.0000 </r>
       <r>   14.4111    0.0000 </r>
       <r>   14.9522    0.0000 </r>
       <r>   15.1767    0.0000 </r>
       <r>   15.2867    0.0000 </r>
      </set>
      <set comment="kpoint 17">
       <r>  -12.9109    1.0000 </r>
       <r>  -12.5028    1.0000 </r>
       <r>  -11.7894    1.0000 </r>
       <r>  -11.5806    1.0000 </r>
       <r>   -4.5881    1.0000 </r>
       <r>   -4.0164    1.0000 </r>
       <r>   -3.2346    1.0000 </r>
       <r>   -2.8086    1.0000 </r>
       <r>   -2.6081    1.0000 </r>
       <r>   -2.2922    1.0000 </r>
       <r>   -1.4560    1.0000 </r>
       <r>   -1.4168    1.0000 </r>
       <r>   -1.0668    1.0000 </r>
       <r>   -1.0103    1.0000 </r>
       <r>   -0.5448    1.0000 </r>
       <r>   -0.1450    1.0000 </r>
       <r>    0.3356    1.0000 </r>
       <r>    0.4388    1.0000 </r>
       <r>    3.0664    0.0000 </r>
       <r>    3.3348    0.0000 </r>
       <r>    3.4940    0.0000 </r>
       <r>    3.6937    0.0000 </r>
       <r>    3.7884    0.0000 </r>
       <r>    4.2682    0.0000 </r>
       <r>    4.5570    0.0000 </r>
       <r>    5.0547    0.0000 </r>
       <r>    7.2111    0.0000 </r>
       <r>    7.6758    0.0000 </r>
       <r>    8.6405    0.0000 </r>
       <r>    9.2964    0.0000 </r>
       <r>    9.7503    0.0000 </r>
       <r>   10.1916    0.0000 </r>
       <r>   10.3638    0.0000 </r>
       <r>   10.6632    0.0000 </r>
       <r>   10.7632    0.0000 </r>
       <r>   11.5258    0.0000 </r>
       <r>   12.0110    0.0000 </r>
       <r>   12.5775    0.0000 </r>
       <r>   12.9542    0.0000 </r>
       <r>   13.1924    0.0000 </r>
       <r>   13.5505    0.0000 </r>
       <r>   13.7658    0.0000 </r>
       <r>   13.9353    0.0000 </r>
       <r>   14.1653    0.0000 </r>
       <r>   14.3539    0.0000 </r>
       <r>   14.7990    0.0000 </r>
       <r>   15.1865    0.0000 </r>
       <r>   15.3976    0.0000 </r>
      </set>
      <set comment="kpoint 18">
       <r>  -13.0107    1.0000 </r>
       <r>  -12.5907    1.0000 </r>
       <r>  -11.8320    1.0000 </r>
       <r>  -11.6191    1.0000 </r>
       <r>   -4.6653    1.0000 </r>
       <r>   -4.0544    1.0000 </r>
       <r>   -3.0976    1.0000 </r>
       <r>   -2.7089    1.0000 </r>
       <r>   -2.4922    1.0000 </r>
       <r>   -2.1451    1.0000 </r>
       <r>   -1.3628    1.0000 </r>
       <r>   -1.3254    1.0000 </r>
       <r>   -1.1543    1.0000 </r>
       <r>   -1.1002    1.0000 </r>
       <r>   -0.4929    1.0000 </r>
       <r>   -0.0811    1.0000 </r>
       <r>    0.4282    1.0000 </r>
       <r>    0.5592    1.0000 </r>
       <r>    3.0952    0.0000 </r>
       <r>    3.3906    0.0000 </r>
       <r>    3.4770    0.0000 </r>
       <r>    3.7286    0.0000 </r>
       <r>    3.7347    0.0000 </r>
       <r>    4.1772    0.0000 </r>
       <r>    4.4732    0.0000 </r>
       <r>    4.9497    0.0000 </r>
       <r>    7.0816    0.0000 </r>
       <r>    7.5660    0.0000 </r>
       <r>    8.5727    0.0000 </r>
       <r>    9.2337    0.0000 </r>
       <r>    9.7150    0.0000 </r>
       <r>   10.1762    0.0000 </r>
       <r>   10.3869    0.0000 </r>
       <r>   10.8245    0.0000 </r>
       <r>   10.9035    0.0000 </r>
       <r>   11.4790    0.0000 </r>
       <r>   11.9289    0.0000 </r>
       <r>   12.5090    0.0000 </r>
       <r>   12.8606    0.0000 </r>
       <r>   13.1524    0.0000 </r>
       <r>   13.3664    0.0000 </r>
       <r>   13.6263    0.0000 </r>
       <r>   13.9499    0.0000 </r>
       <r>   14.0501    0.0000 </r>
       <r>   14.3496    0.0000 </r>
       <r>   14.6856    0.0000 </r>
       <r>   15.2371    0.0000 </r>
       <r>   15.5008    0.0000 </r>
      </set>
      <set comment="kpoint 19">
       <r>  -13.1053    1.0000 </r>
       <r>  -12.6742    1.0000 </r>
       <r>  -11.8726    1.0000 </r>
       <r>  -11.6557    1.0000 </r>
       <r>   -4.7498    1.0000 </r>
       <r>   -4.1078    1.0000 </r>
       <r>   -2.9490    1.0000 </r>
       <r>   -2.6004    1.0000 </r>
       <r>   -2.3737    1.0000 </r>
       <r>   -1.9966    1.0000 </r>
       <r>   -1.2780    1.0000 </r>
       <r>   -1.2336    1.0000 </r>
       <r>   -1.2305    1.0000 </r>
       <r>   -1.1856    1.0000 </r>
       <r>   -0.4477    1.0000 </r>
       <r>   -0.0262    1.0000 </r>
       <r>    0.5121    1.0000 </r>
       <r>    0.6853    1.0000 </r>
       <r>    3.1419    0.0000 </r>
       <r>    3.4493    0.0000 </r>
       <r>    3.4668    0.0000 </r>
       <r>    3.6975    0.0000 </r>
       <r>    3.7712    0.0000 </r>
       <r>    4.0965    0.0000 </r>
       <r>    4.3863    0.0000 </r>
       <r>    4.8410    0.0000 </r>
       <r>    6.9592    0.0000 </r>
       <r>    7.4574    0.0000 </r>
       <r>    8.4487    0.0000 </r>
       <r>    9.1049    0.0000 </r>
       <r>    9.6182    0.0000 </r>
       <r>   10.1953    0.0000 </r>
       <r>   10.4655    0.0000 </r>
       <r>   10.9568    0.0000 </r>
       <r>   11.0531    0.0000 </r>
       <r>   11.4490    0.0000 </r>
       <r>   11.8496    0.0000 </r>
       <r>   12.3997    0.0000 </r>
       <r>   12.7476    0.0000 </r>
       <r>   13.1567    0.0000 </r>
       <r>   13.1758    0.0000 </r>
       <r>   13.4373    0.0000 </r>
       <r>   13.9562    0.0000 </r>
       <r>   14.0243    0.0000 </r>
       <r>   14.3668    0.0000 </r>
       <r>   14.5878    0.0000 </r>
       <r>   15.3386    0.0000 </r>
       <r>   15.5757    0.0000 </r>
      </set>
      <set comment="kpoint 20">
       <r>  -13.1940    1.0000 </r>
       <r>  -12.7525    1.0000 </r>
       <r>  -11.9108    1.0000 </r>
       <r>  -11.6902    1.0000 </r>
       <r>   -4.8367    1.0000 </r>
       <r>   -4.1701    1.0000 </r>
       <r>   -2.7949    1.0000 </r>
       <r>   -2.4860    1.0000 </r>
       <r>   -2.2549    1.0000 </r>
       <r>   -1.8477    1.0000 </r>
       <r>   -1.3276    1.0000 </r>
       <r>   -1.2714    1.0000 </r>
       <r>   -1.1674    1.0000 </r>
       <r>   -1.1385    1.0000 </r>
       <r>   -0.4117    1.0000 </r>
       <r>    0.0170    1.0000 </r>
       <r>    0.5854    1.0000 </r>
       <r>    0.8119    1.0000 </r>
       <r>    3.2058    0.0000 </r>
       <r>    3.4630    0.0000 </r>
       <r>    3.5098    0.0000 </r>
       <r>    3.6835    0.0000 </r>
       <r>    3.8162    0.0000 </r>
       <r>    4.0286    0.0000 </r>
       <r>    4.2977    0.0000 </r>
       <r>    4.7304    0.0000 </r>
       <r>    6.8444    0.0000 </r>
       <r>    7.3515    0.0000 </r>
       <r>    8.2758    0.0000 </r>
       <r>    8.9284    0.0000 </r>
       <r>    9.4951    0.0000 </r>
       <r>   10.2561    0.0000 </r>
       <r>   10.5715    0.0000 </r>
       <r>   11.0164    0.0000 </r>
       <r>   11.1772    0.0000 </r>
       <r>   11.4445    0.0000 </r>
       <r>   11.7696    0.0000 </r>
       <r>   12.3024    0.0000 </r>
       <r>   12.6663    0.0000 </r>
       <r>   12.9413    0.0000 </r>
       <r>   13.2274    0.0000 </r>
       <r>   13.2423    0.0000 </r>
       <r>   13.9041    0.0000 </r>
       <r>   14.0884    0.0000 </r>
       <r>   14.3979    0.0000 </r>
       <r>   14.5051    0.0000 </r>
       <r>   15.5307    0.0000 </r>
       <r>   15.6883    0.0000 </r>
      </set>
      <set comment="kpoint 21">
       <r>  -13.2761    1.0000 </r>
       <r>  -12.8251    1.0000 </r>
       <r>  -11.9463    1.0000 </r>
       <r>  -11.7222    1.0000 </r>
       <r>   -4.9222    1.0000 </r>
       <r>   -4.2360    1.0000 </r>
       <r>   -2.6398    1.0000 </r>
       <r>   -2.3691    1.0000 </r>
       <r>   -2.1372    1.0000 </r>
       <r>   -1.6993    1.0000 </r>
       <r>   -1.4043    1.0000 </r>
       <r>   -1.3479    1.0000 </r>
       <r>   -1.0771    1.0000 </r>
       <r>   -1.0454    1.0000 </r>
       <r>   -0.3867    1.0000 </r>
       <r>    0.0458    1.0000 </r>
       <r>    0.6472    1.0000 </r>
       <r>    0.9344    1.0000 </r>
       <r>    3.2847    0.0000 </r>
       <r>    3.4665    0.0000 </r>
       <r>    3.5709    0.0000 </r>
       <r>    3.6920    0.0000 </r>
       <r>    3.8633    0.0000 </r>
       <r>    3.9756    0.0000 </r>
       <r>    4.2091    0.0000 </r>
       <r>    4.6195    0.0000 </r>
       <r>    6.7377    0.0000 </r>
       <r>    7.2488    0.0000 </r>
       <r>    8.0690    0.0000 </r>
       <r>    8.7243    0.0000 </r>
       <r>    9.3742    0.0000 </r>
       <r>   10.3435    0.0000 </r>
       <r>   10.6763    0.0000 </r>
       <r>   10.9808    0.0000 </r>
       <r>   11.2194    0.0000 </r>
       <r>   11.4767    0.0000 </r>
       <r>   11.6970    0.0000 </r>
       <r>   12.2789    0.0000 </r>
       <r>   12.6609    0.0000 </r>
       <r>   12.7302    0.0000 </r>
       <r>   13.0167    0.0000 </r>
       <r>   13.3261    0.0000 </r>
       <r>   13.8616    0.0000 </r>
       <r>   14.1307    0.0000 </r>
       <r>   14.4305    0.0000 </r>
       <r>   14.4512    0.0000 </r>
       <r>   15.7382    0.0000 </r>
       <r>   15.7808    0.0000 </r>
      </set>
      <set comment="kpoint 22">
       <r>  -13.3511    1.0000 </r>
       <r>  -12.8914    1.0000 </r>
       <r>  -11.9788    1.0000 </r>
       <r>  -11.7516    1.0000 </r>
       <r>   -5.0037    1.0000 </r>
       <r>   -4.3019    1.0000 </r>
       <r>   -2.4874    1.0000 </r>
       <r>   -2.2531    1.0000 </r>
       <r>   -2.0216    1.0000 </r>
       <r>   -1.5519    1.0000 </r>
       <r>   -1.4763    1.0000 </r>
       <r>   -1.4190    1.0000 </r>
       <r>   -0.9888    1.0000 </r>
       <r>   -0.9543    1.0000 </r>
       <r>   -0.3741    1.0000 </r>
       <r>    0.0581    1.0000 </r>
       <r>    0.6972    1.0000 </r>
       <r>    1.0491    1.0000 </r>
       <r>    3.3747    0.0000 </r>
       <r>    3.4792    0.0000 </r>
       <r>    3.6312    0.0000 </r>
       <r>    3.7213    0.0000 </r>
       <r>    3.9099    0.0000 </r>
       <r>    3.9390    0.0000 </r>
       <r>    4.1229    0.0000 </r>
       <r>    4.5106    0.0000 </r>
       <r>    6.6390    0.0000 </r>
       <r>    7.1490    0.0000 </r>
       <r>    7.8468    0.0000 </r>
       <r>    8.5076    0.0000 </r>
       <r>    9.2666    0.0000 </r>
       <r>   10.4405    0.0000 </r>
       <r>   10.7237    0.0000 </r>
       <r>   10.9146    0.0000 </r>
       <r>   11.1491    0.0000 </r>
       <r>   11.5141    0.0000 </r>
       <r>   11.6596    0.0000 </r>
       <r>   12.3581    0.0000 </r>
       <r>   12.5296    0.0000 </r>
       <r>   12.7437    0.0000 </r>
       <r>   12.8149    0.0000 </r>
       <r>   13.4107    0.0000 </r>
       <r>   13.8292    0.0000 </r>
       <r>   14.1337    0.0000 </r>
       <r>   14.3731    0.0000 </r>
       <r>   14.5143    0.0000 </r>
       <r>   15.9150    0.0000 </r>
       <r>   15.9386    0.0000 </r>
      </set>
      <set comment="kpoint 23">
       <r>  -13.4184    1.0000 </r>
       <r>  -12.9509    1.0000 </r>
       <r>  -12.0080    1.0000 </r>
       <r>  -11.7780    1.0000 </r>
       <r>   -5.0791    1.0000 </r>
       <r>   -4.3647    1.0000 </r>
       <r>   -2.3413    1.0000 </r>
       <r>   -2.1412    1.0000 </r>
       <r>   -1.9091    1.0000 </r>
       <r>   -1.5421    1.0000 </r>
       <r>   -1.4835    1.0000 </r>
       <r>   -1.4062    1.0000 </r>
       <r>   -0.9050    1.0000 </r>
       <r>   -0.8668    1.0000 </r>
       <r>   -0.3744    1.0000 </r>
       <r>    0.0527    1.0000 </r>
       <r>    0.7360    1.0000 </r>
       <r>    1.1528    1.0000 </r>
       <r>    3.4672    0.0000 </r>
       <r>    3.5057    0.0000 </r>
       <r>    3.6891    0.0000 </r>
       <r>    3.7677    0.0000 </r>
       <r>    3.9194    0.0000 </r>
       <r>    3.9500    0.0000 </r>
       <r>    4.0462    0.0000 </r>
       <r>    4.4058    0.0000 </r>
       <r>    6.5483    0.0000 </r>
       <r>    7.0509    0.0000 </r>
       <r>    7.6265    0.0000 </r>
       <r>    8.2908    0.0000 </r>
       <r>    9.1740    0.0000 </r>
       <r>   10.5106    0.0000 </r>
       <r>   10.6430    0.0000 </r>
       <r>   10.9082    0.0000 </r>
       <r>   11.0414    0.0000 </r>
       <r>   11.5322    0.0000 </r>
       <r>   11.6607    0.0000 </r>
       <r>   12.3441    0.0000 </r>
       <r>   12.5183    0.0000 </r>
       <r>   12.6273    0.0000 </r>
       <r>   12.9007    0.0000 </r>
       <r>   13.4862    0.0000 </r>
       <r>   13.8058    0.0000 </r>
       <r>   14.1061    0.0000 </r>
       <r>   14.3251    0.0000 </r>
       <r>   14.5761    0.0000 </r>
       <r>   16.0160    0.0000 </r>
       <r>   16.2058    0.0000 </r>
      </set>
      <set comment="kpoint 24">
       <r>  -13.4776    1.0000 </r>
       <r>  -13.0034    1.0000 </r>
       <r>  -12.0337    1.0000 </r>
       <r>  -11.8013    1.0000 </r>
       <r>   -5.1469    1.0000 </r>
       <r>   -4.4225    1.0000 </r>
       <r>   -2.2049    1.0000 </r>
       <r>   -2.0365    1.0000 </r>
       <r>   -1.8010    1.0000 </r>
       <r>   -1.6006    1.0000 </r>
       <r>   -1.5406    1.0000 </r>
       <r>   -1.2628    1.0000 </r>
       <r>   -0.8274    1.0000 </r>
       <r>   -0.7850    1.0000 </r>
       <r>   -0.3870    1.0000 </r>
       <r>    0.0290    1.0000 </r>
       <r>    0.7650    1.0000 </r>
       <r>    1.2435    1.0000 </r>
       <r>    3.5230    0.0000 </r>
       <r>    3.5787    0.0000 </r>
       <r>    3.7431    0.0000 </r>
       <r>    3.8256    0.0000 </r>
       <r>    3.9174    0.0000 </r>
       <r>    3.9374    0.0000 </r>
       <r>    4.0252    0.0000 </r>
       <r>    4.3078    0.0000 </r>
       <r>    6.4654    0.0000 </r>
       <r>    6.9524    0.0000 </r>
       <r>    7.4236    0.0000 </r>
       <r>    8.0843    0.0000 </r>
       <r>    9.0953    0.0000 </r>
       <r>   10.4018    0.0000 </r>
       <r>   10.6684    0.0000 </r>
       <r>   10.7692    0.0000 </r>
       <r>   11.0736    0.0000 </r>
       <r>   11.5349    0.0000 </r>
       <r>   11.6890    0.0000 </r>
       <r>   12.1772    0.0000 </r>
       <r>   12.4582    0.0000 </r>
       <r>   12.7227    0.0000 </r>
       <r>   13.1055    0.0000 </r>
       <r>   13.5467    0.0000 </r>
       <r>   13.7900    0.0000 </r>
       <r>   14.0595    0.0000 </r>
       <r>   14.2872    0.0000 </r>
       <r>   14.6216    0.0000 </r>
       <r>   16.1883    0.0000 </r>
       <r>   16.5661    0.0000 </r>
      </set>
      <set comment="kpoint 25">
       <r>  -13.5283    1.0000 </r>
       <r>  -13.0483    1.0000 </r>
       <r>  -12.0558    1.0000 </r>
       <r>  -11.8213    1.0000 </r>
       <r>   -5.2059    1.0000 </r>
       <r>   -4.4735    1.0000 </r>
       <r>   -2.0815    1.0000 </r>
       <r>   -1.9418    1.0000 </r>
       <r>   -1.6989    1.0000 </r>
       <r>   -1.6513    1.0000 </r>
       <r>   -1.5898    1.0000 </r>
       <r>   -1.1223    1.0000 </r>
       <r>   -0.7578    1.0000 </r>
       <r>   -0.7108    1.0000 </r>
       <r>   -0.4102    1.0000 </r>
       <r>   -0.0123    1.0000 </r>
       <r>    0.7856    1.0000 </r>
       <r>    1.3197    1.0000 </r>
       <r>    3.5615    0.0000 </r>
       <r>    3.6704    0.0000 </r>
       <r>    3.7909    0.0000 </r>
       <r>    3.8746    0.0000 </r>
       <r>    3.8836    0.0000 </r>
       <r>    3.9386    0.0000 </r>
       <r>    4.0580    0.0000 </r>
       <r>    4.2189    0.0000 </r>
       <r>    6.3899    0.0000 </r>
       <r>    6.8513    0.0000 </r>
       <r>    7.2513    0.0000 </r>
       <r>    7.8965    0.0000 </r>
       <r>    9.0292    0.0000 </r>
       <r>   10.2293    0.0000 </r>
       <r>   10.5756    0.0000 </r>
       <r>   10.7559    0.0000 </r>
       <r>   11.1320    0.0000 </r>
       <r>   11.5406    0.0000 </r>
       <r>   11.7353    0.0000 </r>
       <r>   12.0315    0.0000 </r>
       <r>   12.3108    0.0000 </r>
       <r>   12.9442    0.0000 </r>
       <r>   13.3348    0.0000 </r>
       <r>   13.5909    0.0000 </r>
       <r>   13.7801    0.0000 </r>
       <r>   14.0022    0.0000 </r>
       <r>   14.2582    0.0000 </r>
       <r>   14.6472    0.0000 </r>
       <r>   16.2869    0.0000 </r>
       <r>   16.5744    0.0000 </r>
      </set>
      <set comment="kpoint 26">
       <r>  -13.5702    1.0000 </r>
       <r>  -13.0855    1.0000 </r>
       <r>  -12.0741    1.0000 </r>
       <r>  -11.8378    1.0000 </r>
       <r>   -5.2553    1.0000 </r>
       <r>   -4.5167    1.0000 </r>
       <r>   -1.9747    1.0000 </r>
       <r>   -1.8599    1.0000 </r>
       <r>   -1.6935    1.0000 </r>
       <r>   -1.6307    1.0000 </r>
       <r>   -1.6052    1.0000 </r>
       <r>   -0.9858    1.0000 </r>
       <r>   -0.6977    1.0000 </r>
       <r>   -0.6464    1.0000 </r>
       <r>   -0.4410    1.0000 </r>
       <r>   -0.0698    1.0000 </r>
       <r>    0.7997    1.0000 </r>
       <r>    1.3811    1.0000 </r>
       <r>    3.6006    0.0000 </r>
       <r>    3.7534    0.0000 </r>
       <r>    3.8057    0.0000 </r>
       <r>    3.8413    0.0000 </r>
       <r>    3.9222    0.0000 </r>
       <r>    3.9914    0.0000 </r>
       <r>    4.0924    0.0000 </r>
       <r>    4.1420    0.0000 </r>
       <r>    6.3215    0.0000 </r>
       <r>    6.7492    0.0000 </r>
       <r>    7.1172    0.0000 </r>
       <r>    7.7345    0.0000 </r>
       <r>    8.9751    0.0000 </r>
       <r>   10.0665    0.0000 </r>
       <r>   10.4082    0.0000 </r>
       <r>   10.8166    0.0000 </r>
       <r>   11.1707    0.0000 </r>
       <r>   11.5624    0.0000 </r>
       <r>   11.7930    0.0000 </r>
       <r>   11.9091    0.0000 </r>
       <r>   12.1869    0.0000 </r>
       <r>   13.1619    0.0000 </r>
       <r>   13.5572    0.0000 </r>
       <r>   13.6331    0.0000 </r>
       <r>   13.7746    0.0000 </r>
       <r>   13.9416    0.0000 </r>
       <r>   14.2370    0.0000 </r>
       <r>   14.6545    0.0000 </r>
       <r>   16.3624    0.0000 </r>
       <r>   16.7424    0.0000 </r>
      </set>
      <set comment="kpoint 27">
       <r>  -13.6031    1.0000 </r>
       <r>  -13.1146    1.0000 </r>
       <r>  -12.0884    1.0000 </r>
       <r>  -11.8508    1.0000 </r>
       <r>   -5.2943    1.0000 </r>
       <r>   -4.5511    1.0000 </r>
       <r>   -1.8875    1.0000 </r>
       <r>   -1.7933    1.0000 </r>
       <r>   -1.7268    1.0000 </r>
       <r>   -1.6628    1.0000 </r>
       <r>   -1.5235    1.0000 </r>
       <r>   -0.8548    1.0000 </r>
       <r>   -0.6488    1.0000 </r>
       <r>   -0.5937    1.0000 </r>
       <r>   -0.4750    1.0000 </r>
       <r>   -0.1411    1.0000 </r>
       <r>    0.8089    1.0000 </r>
       <r>    1.4278    1.0000 </r>
       <r>    3.6375    0.0000 </r>
       <r>    3.7591    0.0000 </r>
       <r>    3.8217    0.0000 </r>
       <r>    3.8713    0.0000 </r>
       <r>    3.9502    0.0000 </r>
       <r>    4.0558    0.0000 </r>
       <r>    4.0791    0.0000 </r>
       <r>    4.1218    0.0000 </r>
       <r>    6.2611    0.0000 </r>
       <r>    6.6550    0.0000 </r>
       <r>    7.0207    0.0000 </r>
       <r>    7.6039    0.0000 </r>
       <r>    8.9327    0.0000 </r>
       <r>    9.9287    0.0000 </r>
       <r>   10.2663    0.0000 </r>
       <r>   10.8597    0.0000 </r>
       <r>   11.1884    0.0000 </r>
       <r>   11.5996    0.0000 </r>
       <r>   11.8116    0.0000 </r>
       <r>   11.8549    0.0000 </r>
       <r>   12.0886    0.0000 </r>
       <r>   13.3509    0.0000 </r>
       <r>   13.6288    0.0000 </r>
       <r>   13.7715    0.0000 </r>
       <r>   13.8094    0.0000 </r>
       <r>   13.8859    0.0000 </r>
       <r>   14.2222    0.0000 </r>
       <r>   14.6478    0.0000 </r>
       <r>   16.3808    0.0000 </r>
       <r>   16.9684    0.0000 </r>
      </set>
      <set comment="kpoint 28">
       <r>  -13.6267    1.0000 </r>
       <r>  -13.1356    1.0000 </r>
       <r>  -12.0987    1.0000 </r>
       <r>  -11.8601    1.0000 </r>
[...]
       <set comment="band 17">
        <r>  0.0046  0.0006  0.0760  0.0028  0.0000  0.0000  0.0000  0.0000  0.0000 </r>
        <r>  0.0043  0.0003  0.0634  0.0015  0.0000  0.0000  0.0000  0.0000  0.0000 </r>
        <r>  0.0006  0.0003  0.0071  0.0001  0.0000  0.0000  0.0000  0.0000  0.0000 </r>
        <r>  0.0006  0.0000  0.0191  0.0009  0.0000  0.0000  0.0000  0.0000  0.0000 </r>
        <r>  0.0000  0.0037  0.0004  0.0133  0.0124  0.0000  0.0256  0.0000  0.0050 </r>
        <r>  0.0032  0.0281  0.0001  0.0875  0.0932  0.0000  0.1907  0.0000  0.0320 </r>
       </set>
       <set comment="band 18">
        <r>  0.0008  0.0001  0.0069  0.0001  0.0000  0.0000  0.0000  0.0000  0.0000 </r>
        <r>  0.0003  0.0007  0.0125  0.0014  0.0000  0.0000  0.0000  0.0000  0.0000 </r>
        <r>  0.0030  0.0007  0.0745  0.0017  0.0000  0.0000  0.0000  0.0000  0.0000 </r>
        <r>  0.0039  0.0004  0.0726  0.0010  0.0000  0.0000  0.0000  0.0000  0.0000 </r>
        <r>  0.0031  0.0233  0.0000  0.0687  0.0862  0.0000  0.2333  0.0001  0.0282 </r>
        <r>  0.0018  0.0039  0.0003  0.0107  0.0157  0.0000  0.0384  0.0001  0.0049 </r>
       </set>
       <set comment="band 19">
        <r>  0.0000  0.0000  0.0000  0.0000  0.0000  0.0000  0.0000  0.0000  0.0000 </r>
        <r>  0.0000  0.0000  0.0000  0.0000  0.0000  0.0000  0.0000  0.0000  0.0000 </r>
        <r>  0.0000  0.0147  0.0000  0.0049  0.0000  0.0000  0.0000  0.0000  0.0000 </r>
        <r>  0.0000  0.0144  0.0000  0.0048  0.0000  0.0000  0.0000  0.0000  0.0000 </r>
        <r>  0.0000  0.0033  0.0000  0.0011  0.2217  0.0000  0.0000  0.0000  0.6646 </r>
        <r>  0.0000  0.0000  0.0000  0.0000  0.0001  0.0001  0.0000  0.0000  0.0002 </r>
       </set>
       <set comment="band 20">
        <r>  0.0000  0.0001  0.0001  0.0003  0.0000  0.0000  0.0000  0.0000  0.0000 </r>
        <r>  0.0005  0.0000  0.0006  0.0000  0.0000  0.0000  0.0000  0.0000  0.0000 </r>
        <r>  0.0024  0.0078  0.0039  0.0233  0.0000  0.0000  0.0000  0.0000  0.0000 </r>
        <r>  0.0016  0.0082  0.0038  0.0245  0.0000  0.0000  0.0000  0.0000  0.0000 </r>
        <r>  0.0093  0.0029  0.0000  0.0086  0.2165  0.0000  0.5041  0.0001  0.0724 </r>
        <r>  0.0004  0.0000  0.0002  0.0000  0.0005  0.0000  0.0039  0.0001  0.0002 </r>
       </set>
       <set comment="band 21">
        <r>  0.0000  0.0091  0.0000  0.0031  0.0000  0.0000  0.0000  0.0000  0.0000 </r>
        <r>  0.0000  0.0093  0.0000  0.0031  0.0000  0.0000  0.0000  0.0000  0.0000 </r>
        <r>  0.0000  0.0000  0.0000  0.0000  0.0000  0.0000  0.0000  0.0000  0.0000 </r>
        <r>  0.0000  0.0001  0.0000  0.0000  0.0000  0.0000  0.0000  0.0000  0.0000 </r>
        <r>  0.0000  0.0000  0.0000  0.0000  0.0000  0.0002  0.0000  0.0001  0.0001 </r>
        <r>  0.0000  0.0023  0.0000  0.0008  0.2276  0.0000  0.0000  0.0000  0.6815 </r>
       </set>
       <set comment="band 22">
        <r>  0.0015  0.0081  0.0010  0.0241  0.0000  0.0000  0.0000  0.0000  0.0000 </r>
        <r>  0.0020  0.0080  0.0016  0.0239  0.0000  0.0000  0.0000  0.0000  0.0000 </r>
        <r>  0.0005  0.0003  0.0005  0.0007  0.0000  0.0000  0.0000  0.0000  0.0000 </r>
        <r>  0.0000  0.0000  0.0001  0.0000  0.0000  0.0000  0.0000  0.0000  0.0000 </r>
        <r>  0.0009  0.0001  0.0002  0.0002  0.0020  0.0002  0.0024  0.0008  0.0006 </r>
        <r>  0.0096  0.0037  0.0000  0.0110  0.1940  0.0000  0.5294  0.0000  0.0651 </r>
       </set>
       <set comment="band 23">
        <r>  0.0039  0.0005  0.0074  0.0014  0.0000  0.0000  0.0000  0.0000  0.0000 </r>
        <r>  0.0127  0.0004  0.0039  0.0012  0.0000  0.0000  0.0000  0.0000  0.0000 </r>
        <r>  0.0286  0.0024  0.0493  0.0074  0.0000  0.0000  0.0000  0.0000  0.0000 </r>
        <r>  0.0211  0.0020  0.0589  0.0062  0.0000  0.0000  0.0000  0.0000  0.0000 </r>
        <r>  0.0000  0.0001  0.0004  0.0003  0.0000  0.0869  0.0001  0.2592  0.0000 </r>
        <r>  0.0005  0.0003  0.0002  0.0010  0.0008  0.0178  0.0005  0.0541  0.0003 </r>
       </set>
       <set comment="band 24">
        <r>  0.0000  0.0036  0.0000  0.0012  0.0000  0.0000  0.0000  0.0000  0.0000 </r>
        <r>  0.0000  0.0016  0.0000  0.0005  0.0000  0.0000  0.0000  0.0000  0.0000 </r>
        <r>  0.0000  0.1114  0.0000  0.0370  0.0000  0.0000  0.0000  0.0000  0.0000 </r>
        <r>  0.0000  0.1153  0.0000  0.0384  0.0000  0.0000  0.0000  0.0000  0.0000 </r>
        <r>  0.0000  0.0000  0.0000  0.0000  0.0000  0.3450  0.0000  0.1156  0.0000 </r>
        <r>  0.0000  0.0001  0.0000  0.0001  0.0001  0.0101  0.0000  0.0035  0.0005 </r>
       </set>
       <set comment="band 25">
        <r>  0.0256  0.0023  0.0529  0.0066  0.0000  0.0000  0.0000  0.0000  0.0000 </r>
        <r>  0.0197  0.0023  0.0530  0.0065  0.0000  0.0000  0.0000  0.0000  0.0000 </r>
        <r>  0.0009  0.0005  0.0231  0.0014  0.0000  0.0000  0.0000  0.0000  0.0000 </r>
        <r>  0.0064  0.0005  0.0171  0.0016  0.0000  0.0000  0.0000  0.0000  0.0000 </r>
        <r>  0.0005  0.0004  0.0001  0.0013  0.0004  0.0161  0.0000  0.0476  0.0001 </r>
        <r>  0.0025  0.0001  0.0015  0.0004  0.0013  0.0688  0.0007  0.2087  0.0005 </r>
       </set>
       <set comment="band 26">
        <r>  0.0000  0.1076  0.0000  0.0358  0.0000  0.0000  0.0000  0.0000  0.0000 </r>
        <r>  0.0000  0.1079  0.0000  0.0362  0.0000  0.0000  0.0000  0.0000  0.0000 </r>
        <r>  0.0000  0.0054  0.0000  0.0018  0.0000  0.0000  0.0000  0.0000  0.0000 </r>
        <r>  0.0000  0.0032  0.0000  0.0011  0.0000  0.0000  0.0000  0.0000  0.0000 </r>
        <r>  0.0000  0.0001  0.0000  0.0001  0.0000  0.0108  0.0000  0.0034  0.0001 </r>
        <r>  0.0000  0.0000  0.0000  0.0000  0.0000  0.3506  0.0000  0.1153  0.0000 </r>
       </set>
       <set comment="band 27">
        <r>  0.0037  0.0017  0.0001  0.0059  0.0000  0.0000  0.0000  0.0000  0.0000 </r>
        <r>  0.0023  0.0028  0.0037  0.0075  0.0000  0.0000  0.0000  0.0000  0.0000 </r>
        <r>  0.0024  0.0000  0.0075  0.0002  0.0000  0.0000  0.0000  0.0000  0.0000 </r>
        <r>  0.0009  0.0000  0.0014  0.0000  0.0000  0.0000  0.0000  0.0000  0.0000 </r>
        <r>  0.0078  0.0002  0.0009  0.0005  0.0013  0.0002  0.0010  0.0011  0.0004 </r>
        <r>  0.3243  0.0040  0.0000  0.0117  0.0398  0.0002  0.0072  0.0012  0.0132 </r>
       </set>
       <set comment="band 28">
        <r>  0.0009  0.0001  0.0036  0.0003  0.0000  0.0000  0.0000  0.0000  0.0000 </r>
        <r>  0.0044  0.0003  0.0024  0.0011  0.0000  0.0000  0.0000  0.0000  0.0000 </r>
        <r>  0.0001  0.0010  0.0047  0.0030  0.0000  0.0000  0.0000  0.0000  0.0000 </r>
        <r>  0.0001  0.0008  0.0043  0.0024  0.0000  0.0000  0.0000  0.0000  0.0000 </r>
        <r>  0.2357  0.0085  0.0000  0.0253  0.0446  0.0000  0.0012  0.0001  0.0148 </r>
        <r>  0.0022  0.0021  0.0020  0.0065  0.0015  0.0001  0.0003  0.0004  0.0005 </r>
       </set>
       <set comment="band 29">
        <r>  0.0021  0.0000  0.0039  0.0000  0.0000  0.0000  0.0000  0.0000  0.0000 </r>
        <r>  0.0038  0.0001  0.0022  0.0004  0.0000  0.0000  0.0000  0.0000  0.0000 </r>
        <r>  0.0095  0.0001  0.0010  0.0006  0.0000  0.0000  0.0000  0.0000  0.0000 </r>
        <r>  0.0001  0.0000  0.0059  0.0000  0.0000  0.0000  0.0000  0.0000  0.0000 </r>
        <r>  0.0000  0.0009  0.0485  0.0030  0.0029  0.0032  0.0016  0.0104  0.0010 </r>
        <r>  0.0008  0.0000  0.0848  0.0002  0.0005  0.0046  0.0003  0.0152  0.0002 </r>
       </set>
       <set comment="band 30">
        <r>  0.0249  0.0000  0.0048  0.0000  0.0000  0.0000  0.0000  0.0000  0.0000 </r>
        <r>  0.0110  0.0001  0.0096  0.0001  0.0000  0.0000  0.0000  0.0000  0.0000 </r>
        <r>  0.0062  0.0002  0.0031  0.0004  0.0000  0.0000  0.0000  0.0000  0.0000 </r>
        <r>  0.0261  0.0001  0.0010  0.0002  0.0000  0.0000  0.0000  0.0000  0.0000 </r>
        <r>  0.0228  0.0031  0.0379  0.0096  0.0060  0.0012  0.0064  0.0034  0.0020 </r>
        <r>  0.0110  0.0067  0.0209  0.0207  0.0129  0.0006  0.0043  0.0016  0.0043 </r>
       </set>
       <set comment="band 31">
        <r>  0.0077  0.0001  0.0134  0.0001  0.0000  0.0000  0.0000  0.0000  0.0000 </r>
        <r>  0.0208  0.0000  0.0033  0.0002  0.0000  0.0000  0.0000  0.0000  0.0000 </r>
        <r>  0.0057  0.0013  0.0050  0.0044  0.0000  0.0000  0.0000  0.0000  0.0000 </r>
        <r>  0.0005  0.0001  0.0087  0.0003  0.0000  0.0000  0.0000  0.0000  0.0000 </r>
        <r>  0.0163  0.0001  0.0241  0.0001  0.0003  0.0182  0.0009  0.0530  0.0001 </r>
        <r>  0.0172  0.0059  0.0363  0.0160  0.0088  0.0032  0.0016  0.0086  0.0028 </r>
       </set>
       <set comment="band 32">
        <r>  0.0055  0.0000  0.0002  0.0001  0.0000  0.0000  0.0000  0.0000  0.0000 </r>
        <r>  0.0057  0.0031  0.0318  0.0093  0.0000  0.0000  0.0000  0.0000  0.0000 </r>
        <r>  0.0256  0.0018  0.0316  0.0048  0.0000  0.0000  0.0000  0.0000  0.0000 </r>
        <r>  0.0183  0.0002  0.0014  0.0005  0.0000  0.0000  0.0000  0.0000  0.0000 </r>
        <r>  0.0198  0.0095  0.0056  0.0272  0.0196  0.0049  0.0108  0.0157  0.0064 </r>
        <r>  0.0000  0.0060  0.0049  0.0182  0.0056  0.0148  0.0009  0.0443  0.0019 </r>
       </set>
       <set comment="band 33">
        <r>  0.0123  0.0011  0.0034  0.0032  0.0000  0.0000  0.0000  0.0000  0.0000 </r>
        <r>  0.0000  0.0009  0.0059  0.0028  0.0000  0.0000  0.0000  0.0000  0.0000 </r>
        <r>  0.0001  0.0006  0.0031  0.0016  0.0000  0.0000  0.0000  0.0000  0.0000 </r>
        <r>  0.0092  0.0026  0.0025  0.0076  0.0000  0.0000  0.0000  0.0000  0.0000 </r>
        <r>  0.0000  0.0014  0.0155  0.0046  0.0057  0.0101  0.0027  0.0308  0.0019 </r>
        <r>  0.0015  0.0015  0.0031  0.0048  0.0070  0.0104  0.0026  0.0316  0.0024 </r>
       </set>
       <set comment="band 34">
        <r>  0.0001  0.0056  0.0045  0.0163  0.0000  0.0000  0.0000  0.0000  0.0000 </r>
        <r>  0.0037  0.0000  0.0072  0.0001  0.0000  0.0000  0.0000  0.0000  0.0000 </r>
        <r>  0.0007  0.0001  0.0004  0.0002  0.0000  0.0000  0.0000  0.0000  0.0000 </r>
        <r>  0.0001  0.0025  0.0021  0.0075  0.0000  0.0000  0.0000  0.0000  0.0000 </r>
        <r>  0.0054  0.0013  0.0047  0.0040  0.0028  0.0039  0.0043  0.0119  0.0009 </r>
        <r>  0.0068  0.0004  0.0059  0.0015  0.0047  0.0161  0.0040  0.0493  0.0015 </r>
       </set>
       <set comment="band 35">
        <r>  0.0022  0.0008  0.0005  0.0027  0.0000  0.0000  0.0000  0.0000  0.0000 </r>
        <r>  0.0000  0.0017  0.0003  0.0049  0.0000  0.0000  0.0000  0.0000  0.0000 </r>
        <r>  0.0000  0.0013  0.0003  0.0038  0.0000  0.0000  0.0000  0.0000  0.0000 </r>
        <r>  0.0010  0.0007  0.0003  0.0022  0.0000  0.0000  0.0000  0.0000  0.0000 </r>
        <r>  0.0019  0.0023  0.0029  0.0060  0.0202  0.0000  0.0219  0.0001  0.0068 </r>
        <r>  0.0016  0.0018  0.0040  0.0041  0.0138  0.0001  0.0161  0.0003  0.0047 </r>
       </set>
       <set comment="band 36">
        <r>  0.0002  0.0001  0.0164  0.0003  0.0000  0.0000  0.0000  0.0000  0.0000 </r>
        <r>  0.0023  0.0003  0.0013  0.0010  0.0000  0.0000  0.0000  0.0000  0.0000 </r>
        <r>  0.0032  0.0000  0.0018  0.0000  0.0000  0.0000  0.0000  0.0000  0.0000 </r>
        <r>  0.0000  0.0002  0.0181  0.0006  0.0000  0.0000  0.0000  0.0000  0.0000 </r>
        <r>  0.0002  0.0006  0.0001  0.0011  0.0056  0.0008  0.0030  0.0021  0.0018 </r>
        <r>  0.0005  0.0003  0.0000  0.0003  0.0086  0.0020  0.0053  0.0058  0.0028 </r>
       </set>
       <set comment="band 37">
        <r>  0.0000  0.0091  0.0000  0.0032  0.0000  0.0000  0.0000  0.0000  0.0000 </r>
        <r>  0.0000  0.0039  0.0000  0.0013  0.0000  0.0000  0.0000  0.0000  0.0000 </r>
        <r>  0.0000  0.0001  0.0000  0.0001  0.0000  0.0000  0.0000  0.0000  0.0000 </r>
        <r>  0.0000  0.0031  0.0000  0.0012  0.0000  0.0000  0.0000  0.0000  0.0000 </r>
        <r>  0.0000  0.0425  0.0000  0.0148  0.0003  0.0009  0.0000  0.0003  0.0010 </r>
        <r>  0.0000  0.1356  0.0000  0.0474  0.0008  0.0005  0.0000  0.0002  0.0025 </r>
       </set>
       <set comment="band 38">
        <r>  0.0011  0.0009  0.0375  0.0031  0.0000  0.0000  0.0000  0.0000  0.0000 </r>
        <r>  0.0023  0.0002  0.0089  0.0006  0.0000  0.0000  0.0000  0.0000  0.0000 </r>
        <r>  0.0017  0.0004  0.0033  0.0013  0.0000  0.0000  0.0000  0.0000  0.0000 </r>
        <r>  0.0009  0.0016  0.0271  0.0049  0.0000  0.0000  0.0000  0.0000  0.0000 </r>
        <r>  0.0001  0.0037  0.0018  0.0105  0.0093  0.0015  0.0022  0.0046  0.0031 </r>
        <r>  0.0015  0.0062  0.0005  0.0151  0.0064  0.0010  0.0001  0.0029  0.0021 </r>
       </set>
       <set comment="band 39">
        <r>  0.0004  0.0001  0.0011  0.0002  0.0000  0.0000  0.0000  0.0000  0.0000 </r>
        <r>  0.0020  0.0005  0.0000  0.0014  0.0000  0.0000  0.0000  0.0000  0.0000 </r>
        <r>  0.0005  0.0008  0.0001  0.0022  0.0000  0.0000  0.0000  0.0000  0.0000 </r>
        <r>  0.0006  0.0003  0.0009  0.0006  0.0000  0.0000  0.0000  0.0000  0.0000 </r>
        <r>  0.0059  0.0000  0.0035  0.0002  0.0100  0.0013  0.0072  0.0037  0.0035 </r>
        <r>  0.0029  0.0000  0.0031  0.0000  0.0086  0.0014  0.0085  0.0043  0.0029 </r>
       </set>
       <set comment="band 40">
        <r>  0.0000  0.0022  0.0000  0.0006  0.0000  0.0000  0.0000  0.0000  0.0000 </r>
        <r>  0.0000  0.0087  0.0000  0.0026  0.0000  0.0000  0.0000  0.0000  0.0000 </r>
        <r>  0.0000  0.0100  0.0000  0.0031  0.0000  0.0000  0.0000  0.0000  0.0000 </r>
        <r>  0.0000  0.0059  0.0000  0.0019  0.0000  0.0000  0.0000  0.0000  0.0000 </r>
        <r>  0.0000  0.1261  0.0000  0.0439  0.0007  0.0002  0.0000  0.0001  0.0015 </r>
        <r>  0.0000  0.0569  0.0000  0.0190  0.0002  0.0011  0.0000  0.0003  0.0005 </r>
       </set>
       <set comment="band 41">
        <r>  0.0000  0.0005  0.0093  0.0014  0.0000  0.0000  0.0000  0.0000  0.0000 </r>
        <r>  0.0000  0.0006  0.0254  0.0019  0.0000  0.0000  0.0000  0.0000  0.0000 </r>
        <r>  0.0000  0.0004  0.0233  0.0016  0.0000  0.0000  0.0000  0.0000  0.0000 </r>
        <r>  0.0004  0.0001  0.0054  0.0003  0.0000  0.0000  0.0000  0.0000  0.0000 </r>
        <r>  0.0004  0.0008  0.0145  0.0011  0.0001  0.0065  0.0005  0.0189  0.0000 </r>
        <r>  0.0004  0.0003  0.0176  0.0007  0.0001  0.0108  0.0008  0.0321  0.0000 </r>
       </set>
       <set comment="band 42">
        <r>  0.0000  0.0010  0.0066  0.0028  0.0000  0.0000  0.0000  0.0000  0.0000 </r>
        <r>  0.0000  0.0009  0.0097  0.0021  0.0000  0.0000  0.0000  0.0000  0.0000 </r>
        <r>  0.0003  0.0003  0.0124  0.0003  0.0000  0.0000  0.0000  0.0000  0.0000 </r>
        <r>  0.0007  0.0002  0.0094  0.0004  0.0000  0.0000  0.0000  0.0000  0.0000 </r>
        <r>  0.0198  0.0037  0.0003  0.0067  0.0095  0.0002  0.0154  0.0004  0.0033 </r>
        <r>  0.0224  0.0020  0.0002  0.0046  0.0137  0.0003  0.0270  0.0006  0.0046 </r>
       </set>
       <set comment="band 43">
        <r>  0.0010  0.0000  0.0214  0.0001  0.0000  0.0000  0.0000  0.0000  0.0000 </r>
        <r>  0.0024  0.0000  0.0160  0.0000  0.0000  0.0000  0.0000  0.0000  0.0000 </r>
        <r>  0.0017  0.0004  0.0076  0.0014  0.0000  0.0000  0.0000  0.0000  0.0000 </r>
        <r>  0.0011  0.0010  0.0123  0.0031  0.0000  0.0000  0.0000  0.0000  0.0000 </r>
        <r>  0.0002  0.0019  0.0125  0.0048  0.0047  0.0027  0.0003  0.0074  0.0016 </r>
        <r>  0.0056  0.0025  0.0109  0.0069  0.0041  0.0023  0.0001  0.0066  0.0014 </r>
       </set>
       <set comment="band 44">
        <r>  0.0005  0.0039  0.0138  0.0116  0.0000  0.0000  0.0000  0.0000  0.0000 </r>
        <r>  0.0000  0.0031  0.0021  0.0104  0.0000  0.0000  0.0000  0.0000  0.0000 </r>
        <r>  0.0005  0.0016  0.0116  0.0056  0.0000  0.0000  0.0000  0.0000  0.0000 </r>
        <r>  0.0005  0.0021  0.0230  0.0063  0.0000  0.0000  0.0000  0.0000  0.0000 </r>
        <r>  0.0488  0.0011  0.0011  0.0039  0.0006  0.0007  0.0046  0.0018  0.0002 </r>
        <r>  0.0329  0.0002  0.0080  0.0011  0.0009  0.0032  0.0053  0.0086  0.0003 </r>
       </set>
       <set comment="band 45">
        <r>  0.0030  0.0033  0.0000  0.0097  0.0000  0.0000  0.0000  0.0000  0.0000 </r>
        <r>  0.0025  0.0066  0.0283  0.0200  0.0000  0.0000  0.0000  0.0000  0.0000 </r>
        <r>  0.0025  0.0095  0.0238  0.0287  0.0000  0.0000  0.0000  0.0000  0.0000 </r>
        <r>  0.0009  0.0063  0.0005  0.0189  0.0000  0.0000  0.0000  0.0000  0.0000 </r>
        <r>  0.0108  0.0022  0.0002  0.0066  0.0406  0.0000  0.0106  0.0000  0.0135 </r>
        <r>  0.0065  0.0016  0.0004  0.0047  0.0243  0.0000  0.0074  0.0000  0.0081 </r>
       </set>
       <set comment="band 46">
        <r>  0.0005  0.0066  0.0118  0.0199  0.0000  0.0000  0.0000  0.0000  0.0000 </r>
        <r>  0.0003  0.0064  0.0000  0.0190  0.0000  0.0000  0.0000  0.0000  0.0000 </r>
        <r>  0.0005  0.0022  0.0022  0.0071  0.0000  0.0000  0.0000  0.0000  0.0000 </r>
        <r>  0.0016  0.0026  0.0120  0.0076  0.0000  0.0000  0.0000  0.0000  0.0000 </r>
        <r>  0.0050  0.0004  0.0035  0.0012  0.0085  0.0004  0.0021  0.0015  0.0028 </r>
        <r>  0.0133  0.0008  0.0023  0.0026  0.0201  0.0004  0.0070  0.0013  0.0067 </r>
       </set>
       <set comment="band 47">
        <r>  0.0000  0.0031  0.0000  0.0011  0.0000  0.0000  0.0000  0.0000  0.0000 </r>
        <r>  0.0000  0.0131  0.0000  0.0044  0.0000  0.0000  0.0000  0.0000  0.0000 </r>
        <r>  0.0000  0.0118  0.0000  0.0039  0.0000  0.0000  0.0000  0.0000  0.0000 </r>
        <r>  0.0000  0.0035  0.0000  0.0014  0.0000  0.0000  0.0000  0.0000  0.0000 </r>
        <r>  0.0000  0.0016  0.0000  0.0006  0.0000  0.0359  0.0000  0.0131  0.0000 </r>
        <r>  0.0000  0.0022  0.0000  0.0007  0.0000  0.0280  0.0000  0.0105  0.0001 </r>
       </set>
       <set comment="band 48">
        <r>  0.0000  0.0047  0.0121  0.0034  0.0000  0.0000  0.0000  0.0000  0.0000 </r>
        <r>  0.0006  0.0045  0.0161  0.0187  0.0000  0.0000  0.0000  0.0000  0.0000 </r>
        <r>  0.0014  0.0063  0.0047  0.0207  0.0000  0.0000  0.0000  0.0000  0.0000 </r>
        <r>  0.0002  0.0030  0.0046  0.0007  0.0000  0.0000  0.0000  0.0000  0.0000 </r>
        <r>  0.0281  0.0013  0.0195  0.0004  0.0003  0.0027  0.0001  0.0052  0.0003 </r>
        <r>  0.0381  0.0027  0.0090  0.0046  0.0065  0.0028  0.0000  0.0045  0.0025 </r>
       </set>
      </set>
     </set>
    </set>
   </array>
  </projected>
 </calculation>
 <structure name="finalpos" >
  <crystal>
   <varray name="basis" >
    <v>       3.18650000       0.00000000       0.00000000 </v>
    <v>      -1.59325000       2.75958995       0.00000000 </v>
    <v>       0.00000000       0.00000000      20.00000000 </v>
   </varray>
   <i name="volume">    175.86866745 </i>
   <varray name="rec_basis" >
    <v>       0.31382394       0.18118634       0.00000000 </v>
    <v>       0.00000000       0.36237268       0.00000000 </v>
    <v>       0.00000000       0.00000000       0.05000000 </v>
   </varray>
  </crystal>
  <varray name="positions" >
   <v>       0.65902527       0.34587942       0.69283634 </v>
   <v>       0.65905005       0.34586411       0.53651181 </v>
   <v>       0.99788073       0.00109173       0.38437599 </v>
   <v>       0.99783320       0.00099507       0.22844737 </v>
   <v>       0.66436778       0.33429416       0.30644433 </v>
   <v>       0.99243815       0.01248506       0.61460282 </v>
  </varray>
  <varray name="selective"  type="logical" >
   <v type="logical" >  T  T  T </v>
   <v type="logical" >  T  T  T </v>
   <v type="logical" >  T  T  T </v>
   <v type="logical" >  T  T  T </v>
   <v type="logical" >  T  T  T </v>
   <v type="logical" >  T  T  T </v>
  </varray>
  <nose>
   <v>      -3.00000000       0.00000000       0.00010000       0.00010000 </v>
  </nose>
 </structure>
</modeling>
