VaspCalc                                
           1
     3.186500    0.000000    0.000000
    -1.593250    2.759590    0.000000
     0.000000    0.000000   20.000000
   S    Mo   W 
   4   1   1
Direct configuration=     1
   0.65902527  0.34587942  0.69283634
   0.65905005  0.34586411  0.53651181
   0.99788073  0.00109173  0.38437599
   0.99783320  0.00099507  0.22844737
   0.66436778  0.33429416  0.30644433
   0.99243815  0.01248506  0.61460282
